ITEM: TIMESTEP
0
ITEM: NUMBER OF ATOMS
27
ITEM: BOX BOUNDS pp pp pp
0 8.39798
0 8.39798
0 8.39798
ITEM: ATOMS id type x y z vx vy vz
1 1 2.10515 1.55415 1.55973 0.554047 -0.130824 -0.232005
2 1 1.62457 1.52657 3.50728 -0.42197 -0.299532 0.164538
3 1 1.50481 1.67515 6.38261 -0.16897 0.0409632 0.183393
4 1 1.64067 3.90847 1.34533 0.233088 0.279895 -0.169865
5 1 1.35449 3.80035 4.42048 -0.260152 0.242519 -0.0357999
6 1 1.71953 4.29613 6.77165 -0.456021 0.456988 -0.225428
7 1 1.71673 6.59642 1.62803 0.641957 -0.179018 -0.0455311
8 1 1.73497 6.80308 3.88164 -0.325941 -0.220773 0.542201
9 1 1.62844 6.73156 6.65156 0.541496 0.0684354 -0.170059
10 1 4.62215 1.42941 1.96633 -0.000998491 0.414674 -0.117949
11 1 4.24837 1.73883 4.53121 0.356351 0.362655 -0.657647
12 1 4.04744 1.71664 6.89246 0.0109461 0.114185 -0.289048
13 1 4.48221 3.70584 1.5468 0.213718 0.0251904 0.219834
14 1 3.83885 4.42859 4.10927 -1.08452 -0.625948 -0.677175
15 1 4.13826 4.53149 6.95842 -0.227897 -0.135254 -0.5638
16 1 4.66619 6.54643 1.72623 0.224715 -0.276307 0.013534
17 1 4.32043 7.18975 3.88325 0.257777 -0.303713 0.399075
18 1 4.04375 6.96624 6.62774 -0.0293258 0.000581844 0.945305
19 1 6.65155 1.63211 1.7968 -0.331698 0.269662 -0.65648
20 1 6.95447 2.01738 4.18565 -0.54855 0.209163 0.753031
21 1 7.21116 1.36334 6.59895 -0.134691 0.155173 0.267713
22 1 7.09351 4.55475 1.95537 0.516542 -0.22357 0.0674026
23 1 6.69418 4.3515 4.85751 -0.608374 0.107052 0.135641
24 1 6.53329 4.16656 7.0849 0.803579 0.734162 0.751422
25 1 7.06024 6.84056 1.52934 0.220182 -0.615772 -0.0898041
26 1 6.77253 6.84586 4.2222 0.369797 -0.717005 -0.149342
27 1 6.56808 6.69393 6.83939 -0.325264 -0.464927 -0.295139
ITEM: TIMESTEP
1
ITEM: NUMBER OF ATOMS
27
ITEM: BOX BOUNDS pp pp pp
0 8.39798
0 8.39798
0 8.39798
ITEM: ATOMS id type x y z vx vy vz
1 1 2.1079 1.55371 1.55862 0.549863 -0.0878181 -0.221338
2 1 1.62232 1.52491 3.50817 -0.450105 -0.332506 0.176686
3 1 1.50375 1.6753 6.38342 -0.211771 0.0300478 0.162865
4 1 1.64153 3.91012 1.34463 0.171267 0.330191 -0.138931
5 1 1.35333 3.80178 4.42007 -0.231421 0.285891 -0.0823038
6 1 1.71706 4.29823 6.77049 -0.494168 0.420393 -0.231843
7 1 1.72006 6.59555 1.62767 0.667543 -0.173957 -0.0725462
8 1 1.73307 6.80196 3.88427 -0.379823 -0.224629 0.527078
9 1 1.63128 6.7322 6.65089 0.569294 0.127664 -0.134665
10 1 4.62167 1.4316 1.96585 -0.0950923 0.438782 -0.0960538
11 1 4.25015 1.74072 4.52785 0.357144 0.376761 -0.67245
12 1 4.04777 1.71735 6.89048 0.0655204 0.141944 -0.39702
13 1 4.4832 3.70606 1.54786 0.196508 0.0440296 0.211025
14 1 3.83358 4.42547 4.10576 -1.05449 -0.624868 -0.702589
15 1 4.13699 4.53119 6.95575 -0.253865 -0.0606884 -0.532833
16 1 4.66724 6.54479 1.72627 0.209196 -0.326844 0.00843538
17 1 4.32149 7.18833 3.88508 0.211455 -0.283733 0.365895
18 1 4.04368 6.96595 6.63238 -0.0144291 -0.0582605 0.929851
19 1 6.64999 1.63382 1.79344 -0.311385 0.342144 -0.673194
20 1 6.95176 2.01822 4.1894 -0.54174 0.167463 0.750343
21 1 7.21028 1.36426 6.60047 -0.176209 0.182532 0.303129
22 1 7.09573 4.5533 1.95581 0.444047 -0.28976 0.0884517
23 1 6.69141 4.35221 4.85801 -0.553583 0.140554 0.0996987
24 1 6.53731 4.17005 7.08888 0.805126 0.697108 0.795555
25 1 7.06163 6.83727 1.52915 0.276548 -0.657069 -0.0374297
26 1 6.77462 6.84213 4.2217 0.417588 -0.747286 -0.100457
27 1 6.56642 6.69167 6.83758 -0.330741 -0.450884 -0.362046
ITEM: TIMESTEP
2
ITEM: NUMBER OF ATOMS
27
ITEM: BOX BOUNDS pp pp pp
0 8.39798
0 8.39798
0 8.39798
ITEM: ATOMS id type x y z vx vy vz
1 1 2.11064 1.55348 1.55752 0.546769 -0.0458152 -0.21977
2 1 1.61994 1.52308 3.50909 -0.47441 -0.366123 0.184392
3 1 1.50244 1.67541 6.38415 -0.261308 0.0225746 0.144838
4 1 1.64208 3.91199 1.34412 0.110591 0.372882 -0.102174
5 1 1.35238 3.80345 4.4194 -0.191041 0.332425 -0.133111
6 1 1.7145 4.30011 6.76929 -0.512578 0.376216 -0.238751
7 1 1.72353 6.59472 1.62717 0.693282 -0.166105 -0.100006
8 1 1.73091 6.80084 3.88684 -0.431898 -0.22457 0.51397
9 1 1.63425 6.73316 6.6504 0.592791 0.192373 -0.0971452
10 1 4.62078 1.43397 1.96547 -0.179132 0.473309 -0.0754817
11 1 4.2519 1.74265 4.52441 0.349908 0.387021 -0.687481
12 1 4.04834 1.71821 6.88804 0.113736 0.172335 -0.487759
13 1 4.48414 3.70635 1.5488 0.189559 0.0580956 0.189482
14 1 3.82849 4.42238 4.10217 -1.01755 -0.618737 -0.71689
15 1 4.13557 4.53124 6.95329 -0.283089 0.00895821 -0.493204
16 1 4.66821 6.54292 1.72631 0.19394 -0.375018 0.00826272
17 1 4.3223 7.18698 3.88673 0.162889 -0.270271 0.329631
18 1 4.04371 6.96533 6.63686 0.00637885 -0.123432 0.895471
19 1 6.64857 1.63581 1.79006 -0.284893 0.398078 -0.674383
20 1 6.9491 2.01887 4.19314 -0.53246 0.130144 0.746581
21 1 7.20917 1.36529 6.6022 -0.222354 0.206337 0.346284
22 1 7.09755 4.55151 1.95639 0.364895 -0.357947 0.117011
23 1 6.68888 4.35304 4.85842 -0.506613 0.166663 0.0823112
24 1 6.54128 4.17335 7.093 0.794172 0.660234 0.825195
25 1 7.06324 6.83396 1.52926 0.322444 -0.662749 0.0217836
26 1 6.77691 6.8383 4.22145 0.456977 -0.766085 -0.0498466
27 1 6.56477 6.68953 6.83539 -0.331047 -0.428276 -0.437664
ITEM: TIMESTEP
3
ITEM: NUMBER OF ATOMS
27
ITEM: BOX BOUNDS pp pp pp
0 8.39798
0 8.39798
0 8.39798
ITEM: ATOMS id type x y z vx vy vz
1 1 2.11335 1.55344 1.55639 0.543338 -0.00907529 -0.226584
2 1 1.61747 1.52107 3.51004 -0.494362 -0.401411 0.189828
3 1 1.50088 1.67552 6.38478 -0.312104 0.0225748 0.127404
4 1 1.64234 3.91403 1.34381 0.0524542 0.408372 -0.0629928
5 1 1.35167 3.80535 4.41847 -0.141833 0.380441 -0.187198
6 1 1.71195 4.30174 6.76807 -0.510244 0.325795 -0.244079
7 1 1.72712 6.59394 1.62654 0.718218 -0.15621 -0.125527
8 1 1.72853 6.79973 3.88937 -0.476145 -0.220739 0.50501
9 1 1.63728 6.73438 6.65008 0.60693 0.244461 -0.0635888
10 1 4.61955 1.43655 1.96519 -0.245568 0.515383 -0.0573618
11 1 4.25356 1.74462 4.52091 0.331178 0.394359 -0.698707
12 1 4.04911 1.71924 6.8853 0.154751 0.20732 -0.547274
13 1 4.48511 3.70669 1.54959 0.193145 0.0684006 0.156395
14 1 3.82361 4.41934 4.09858 -0.975931 -0.607393 -0.71864
15 1 4.13401 4.53158 6.95104 -0.313366 0.0693776 -0.450594
16 1 4.6691 6.54083 1.72638 0.179641 -0.417491 0.0138344
17 1 4.32287 7.18566 3.88822 0.113273 -0.264911 0.29824
18 1 4.04388 6.9644 6.64108 0.0340243 -0.186945 0.844375
19 1 6.6473 1.63797 1.78678 -0.253178 0.431392 -0.656544
20 1 6.9465 2.01936 4.19683 -0.520066 0.0971097 0.73892
21 1 7.20782 1.36642 6.60416 -0.268931 0.225815 0.3918
22 1 7.09898 4.54938 1.95715 0.286098 -0.426943 0.151088
23 1 6.68655 4.35397 4.85882 -0.466335 0.186548 0.0802657
24 1 6.54513 4.17647 7.0972 0.769178 0.623975 0.8404
25 1 7.065 6.83079 1.52964 0.353367 -0.634021 0.0764637
26 1 6.77934 6.83444 4.22145 0.485903 -0.771258 -3.18937e-05
27 1 6.56315 6.68752 6.83279 -0.322658 -0.401668 -0.519462
ITEM: TIMESTEP
4
ITEM: NUMBER OF ATOMS
27
ITEM: BOX BOUNDS pp pp pp
0 8.39798
0 8.39798
0 8.39798
ITEM: ATOMS id type x y z vx vy vz
1 1 2.11603 1.55353 1.55519 0.535862 0.0195529 -0.239925
2 1 1.61493 1.51887 3.51101 -0.509378 -0.43954 0.195135
3 1 1.49908 1.67569 6.38533 -0.359437 0.0327817 0.108674
4 1 1.64233 3.91622 1.34369 -0.00157851 0.437767 -0.0243317
5 1 1.35123 3.80749 4.41725 -0.0875925 0.428122 -0.242582
6 1 1.70951 4.3031 6.76684 -0.48709 0.272072 -0.247536
7 1 1.73083 6.59321 1.62581 0.742189 -0.144789 -0.147011
8 1 1.726 6.79867 3.89187 -0.507238 -0.213385 0.50082
9 1 1.64032 6.73573 6.64989 0.607436 0.268571 -0.037839
10 1 4.61809 1.43936 1.96497 -0.291017 0.562268 -0.0428209
11 1 4.25505 1.74662 4.5174 0.298002 0.399123 -0.702152
12 1 4.05005 1.72048 6.88246 0.187382 0.247689 -0.567885
13 1 4.48614 3.70707 1.55016 0.206956 0.0759715 0.114676
14 1 3.81894 4.41638 4.09504 -0.932998 -0.591127 -0.708685
15 1 4.13229 4.53217 6.94898 -0.342674 0.118082 -0.41056
16 1 4.66994 6.53857 1.7265 0.166913 -0.452229 0.0246886
17 1 4.32318 7.18431 3.8896 0.0626496 -0.268302 0.275987
18 1 4.04422 6.96319 6.645 0.0681935 -0.241731 0.783304
19 1 6.64622 1.64017 1.78368 -0.216667 0.439739 -0.619272
20 1 6.94398 2.0197 4.20045 -0.503767 0.0680351 0.724273
21 1 7.20627 1.36762 6.60633 -0.311384 0.240693 0.433984
22 1 7.10005 4.5469 1.95809 0.213526 -0.49511 0.188688
23 1 6.68439 4.35498 4.85927 -0.431377 0.201894 0.0893037
24 1 6.54878 4.1794 7.10142 0.729481 0.587579 0.84323
25 1 7.06684 6.82791 1.53018 0.366233 -0.575892 0.107027
26 1 6.78185 6.83062 4.22168 0.503561 -0.764069 0.0461497
27 1 6.56165 6.68565 6.82979 -0.301746 -0.375604 -0.600676
ITEM: TIMESTEP
5
ITEM: NUMBER OF ATOMS
27
ITEM: BOX BOUNDS pp pp pp
0 8.39798
0 8.39798
0 8.39798
ITEM: ATOMS id type x y z vx vy vz
1 1 2.11863 1.55374 1.55391 0.519481 0.0401615 -0.256428
2 1 1.61233 1.51647 3.51202 -0.519359 -0.481585 0.202154
3 1 1.49708 1.67595 6.38576 -0.401131 0.0530914 0.0873283
4 1 1.64208 3.91853 1.34374 -0.0499648 0.462105 0.0115568
5 1 1.35107 3.80986 4.41577 -0.0324933 0.474181 -0.296426
6 1 1.70729 4.3042 6.76559 -0.444206 0.219262 -0.250299
7 1 1.73466 6.59255 1.62499 0.765494 -0.132485 -0.163062
8 1 1.72338 6.79765 3.89438 -0.522053 -0.202755 0.500581
9 1 1.64329 6.73702 6.64979 0.593688 0.259392 -0.0206773
10 1 4.61652 1.44242 1.96481 -0.315394 0.611576 -0.0324421
11 1 4.25629 1.74862 4.51393 0.249173 0.400881 -0.695445
12 1 4.0511 1.72194 6.87969 0.210473 0.291155 -0.553765
13 1 4.4873 3.70748 1.5505 0.230189 0.081846 0.0686057
14 1 3.81448 4.41353 4.09159 -0.892453 -0.570204 -0.689219
15 1 4.13044 4.53294 6.9471 -0.369906 0.154279 -0.376713
16 1 4.67072 6.53617 1.7267 0.156605 -0.478631 0.0393004
17 1 4.32324 7.18291 3.89092 0.0107007 -0.279986 0.263883
18 1 4.04475 6.96177 6.6486 0.106165 -0.283922 0.719174
19 1 6.64534 1.64229 1.78086 -0.175526 0.425185 -0.565507
20 1 6.94156 2.01991 4.20395 -0.483056 0.0425741 0.699981
21 1 7.20454 1.36888 6.60866 -0.346013 0.251157 0.467617
22 1 7.10081 4.5441 1.95923 0.151458 -0.560541 0.228237
23 1 6.68239 4.35605 4.85979 -0.400755 0.214452 0.105245
24 1 6.55216 4.18215 7.10561 0.67588 0.549346 0.838027
25 1 7.06865 6.82542 1.53067 0.362577 -0.498189 0.0993174
26 1 6.7844 6.82688 4.22211 0.509883 -0.747563 0.0857736
27 1 6.56031 6.68389 6.82643 -0.267792 -0.351589 -0.671633
ITEM: TIMESTEP
6
ITEM: NUMBER OF ATOMS
27
ITEM: BOX BOUNDS pp pp pp
0 8.39798
0 8.39798
0 8.39798
ITEM: ATOMS id type x y z vx vy vz
1 1 2.12109 1.55402 1.55255 0.491758 0.0561382 -0.271853
2 1 1.6097 1.51383 3.51308 -0.525055 -0.527984 0.212097
3 1 1.49489 1.67636 6.38608 -0.437466 0.0809952 0.0624882
4 1 1.64163 3.92094 1.34396 -0.0916287 0.482046 0.0429914
5 1 1.35117 3.81245 4.41404 0.0199664 0.51825 -0.345385
6 1 1.70537 4.30506 6.76432 -0.38425 0.171686 -0.253769
7 1 1.7386 6.59195 1.62412 0.788266 -0.120504 -0.173266
8 1 1.72078 6.79671 3.89689 -0.520223 -0.189008 0.502764
9 1 1.64613 6.73813 6.64974 0.569648 0.221931 -0.0107772
10 1 4.61491 1.44572 1.96468 -0.3208 0.661256 -0.0260954
11 1 4.25722 1.75062 4.51053 0.185793 0.398501 -0.678817
12 1 4.05222 1.7236 6.87709 0.223929 0.332648 -0.52128
13 1 4.4886 3.70792 1.55062 0.261521 0.0870209 0.0228039
14 1 3.8102 4.41081 4.08828 -0.85678 -0.544253 -0.662927
15 1 4.12847 4.53384 6.94535 -0.394841 0.178188 -0.350325
16 1 4.67147 6.53369 1.72698 0.150009 -0.49685 0.0556526
17 1 4.32303 7.18142 3.89222 -0.0421948 -0.29874 0.26115
18 1 4.04547 6.9602 6.65188 0.142569 -0.313588 0.65653
19 1 6.64469 1.64426 1.77836 -0.13059 0.393304 -0.500034
20 1 6.93927 2.02001 4.20727 -0.45822 0.0206212 0.664548
21 1 7.20268 1.37016 6.61111 -0.370939 0.257602 0.48855
22 1 7.10132 4.54099 1.96058 0.102253 -0.621501 0.268677
23 1 6.68052 4.35718 4.86042 -0.373959 0.225907 0.12463
24 1 6.55521 4.18469 7.10976 0.610667 0.507415 0.830593
25 1 7.0704 6.82334 1.53099 0.350666 -0.415512 0.0627012
26 1 6.78693 6.82326 4.22269 0.504898 -0.723967 0.116338
27 1 6.55917 6.68226 6.82281 -0.226674 -0.326606 -0.725429
ITEM: TIMESTEP
7
ITEM: NUMBER OF ATOMS
27
ITEM: BOX BOUNDS pp pp pp
0 8.39798
0 8.39798
0 8.39798
ITEM: ATOMS id type x y z vx vy vz
1 1 2.12336 1.55438 1.55113 0.455165 0.0723419 -0.283121
2 1 1.60706 1.51094 3.51421 -0.528114 -0.577816 0.225082
3 1 1.49254 1.67692 6.38624 -0.469552 0.113078 0.0336435
4 1 1.64099 3.92343 1.3443 -0.126199 0.497753 0.0685197
5 1 1.35151 3.81525 4.41211 0.0679913 0.560508 -0.38611
6 1 1.70381 4.30572 6.76303 -0.311999 0.132281 -0.258179
7 1 1.74265 6.59139 1.62323 0.809932 -0.110722 -0.178165
8 1 1.71827 6.79585 3.89942 -0.503438 -0.17219 0.50585
9 1 1.64885 6.73897 6.64971 0.542324 0.166853 -0.0060971
10 1 4.61336 1.44927 1.96457 -0.310454 0.709277 -0.0221981
11 1 4.25778 1.75257 4.50726 0.111362 0.39058 -0.654997
12 1 4.05337 1.72544 6.87463 0.228949 0.366815 -0.491743
13 1 4.4901 3.70838 1.55052 0.299061 0.09222 -0.0189154
14 1 3.80607 4.40825 4.08512 -0.826193 -0.512206 -0.632344
15 1 4.12638 4.53479 6.94369 -0.417824 0.190248 -0.330955
16 1 4.67221 6.53115 1.72734 0.148331 -0.507208 0.0719644
17 1 4.32256 7.17981 3.89355 -0.0940378 -0.32263 0.266082
18 1 4.04632 6.95854 6.65487 0.171494 -0.332627 0.598054
19 1 6.64427 1.64601 1.77622 -0.0839325 0.351045 -0.427515
20 1 6.93712 2.02002 4.21037 -0.430682 0.00249276 0.618081
21 1 7.20075 1.37147 6.61358 -0.386175 0.260522 0.494076
22 1 7.10165 4.53761 1.96212 0.0661874 -0.676197 0.309057
23 1 6.67876 4.35837 4.86114 -0.351009 0.237507 0.144885
24 1 6.5579 4.18699 7.11389 0.537247 0.460552 0.826208
25 1 7.07211 6.82163 1.53109 0.341061 -0.341176 0.0209015
26 1 6.78937 6.81979 4.22337 0.488466 -0.693931 0.136267
27 1 6.55824 6.68077 6.819 -0.186419 -0.296555 -0.761477
ITEM: TIMESTEP
8
ITEM: NUMBER OF ATOMS
27
ITEM: BOX BOUNDS pp pp pp
0 8.39798
0 8.39798
0 8.39798
ITEM: ATOMS id type x y z vx vy vz
1 1 2.12544 1.55484 1.54968 0.416119 0.0923513 -0.29025
2 1 1.60441 1.5078 3.51541 -0.530777 -0.628167 0.239864
3 1 1.49005 1.67765 6.38625 -0.497839 0.146247 0.00100642
4 1 1.64023 3.92597 1.34473 -0.153644 0.508938 0.0865216
5 1 1.35207 3.81826 4.41004 0.112057 0.600569 -0.415529
6 1 1.70264 4.30623 6.76172 -0.234231 0.101639 -0.262064
7 1 1.7468 6.59087 1.62234 0.829087 -0.105258 -0.178958
8 1 1.71589 6.79508 3.90196 -0.474787 -0.152342 0.508814
9 1 1.65144 6.73949 6.64968 0.519175 0.10536 -0.00492902
10 1 4.61192 1.45304 1.96448 -0.288257 0.753415 -0.0176899
11 1 4.25794 1.75445 4.50412 0.0316089 0.376025 -0.628247
12 1 4.0545 1.72739 6.87222 0.227053 0.390863 -0.480857
13 1 4.4918 3.70887 1.55025 0.340475 0.0978181 -0.0541935
14 1 3.80207 4.40588 4.08212 -0.798825 -0.473007 -0.599539
15 1 4.12418 4.53574 6.94211 -0.439498 0.190822 -0.317345
16 1 4.67297 6.5286 1.72777 0.151963 -0.509985 0.0871185
17 1 4.32185 7.17806 3.89494 -0.140998 -0.349302 0.276487
18 1 4.04727 6.95683 6.6576 0.189713 -0.341821 0.54617
19 1 6.64407 1.64754 1.77446 -0.038712 0.30477 -0.350929
20 1 6.9351 2.01997 4.21318 -0.403159 -0.0110706 0.562346
21 1 7.19879 1.37277 6.61599 -0.393004 0.260516 0.482793
22 1 7.10186 4.534 1.96386 0.0412089 -0.722242 0.347978
23 1 6.6771 4.35962 4.86196 -0.33252 0.24981 0.163943
24 1 6.56019 4.18903 7.11803 0.459405 0.408382 0.827945
25 1 7.07381 6.82023 1.53103 0.340067 -0.281354 -0.0120025
26 1 6.79167 6.8165 4.2241 0.460561 -0.658071 0.145162
27 1 6.55749 6.67947 6.81508 -0.150658 -0.260338 -0.783157
ITEM: TIMESTEP
9
ITEM: NUMBER OF ATOMS
27
ITEM: BOX BOUNDS pp pp pp
0 8.39798
0 8.39798
0 8.39798
ITEM: ATOMS id type x y z vx vy vz
1 1 2.12735 1.55542 1.5482 0.380812 0.116892 -0.296409
2 1 1.60173 1.50442 3.51668 -0.535231 -0.674393 0.253837
3 1 1.48745 1.67854 6.38608 -0.521486 0.178046 -0.033491
4 1 1.63936 3.92855 1.34521 -0.173887 0.515276 0.0951683
5 1 1.35284 3.82144 4.40788 0.154578 0.636449 -0.431131
6 1 1.70185 4.30662 6.7604 -0.158148 0.0781797 -0.262903
7 1 1.75102 6.59034 1.62145 0.843741 -0.105896 -0.177108
8 1 1.7137 6.79444 3.90452 -0.437858 -0.129507 0.511309
9 1 1.65397 6.73973 6.64965 0.506017 0.0462986 -0.00645643
10 1 4.61063 1.45699 1.96444 -0.25822 0.791215 -0.00860753
11 1 4.2577 1.75622 4.5011 -0.0464 0.3547 -0.602774
12 1 4.0556 1.72942 6.86976 0.219576 0.405853 -0.492385
13 1 4.49372 3.70938 1.54984 0.383172 0.103671 -0.0821455
14 1 3.79821 4.40375 4.07929 -0.772131 -0.426879 -0.566056
15 1 4.12188 4.53664 6.94057 -0.460673 0.180091 -0.307989
16 1 4.67378 6.52608 1.72828 0.16034 -0.505235 0.1005
17 1 4.32096 7.17618 3.89639 -0.178364 -0.376242 0.290284
18 1 4.04826 6.95512 6.66011 0.198076 -0.340713 0.502611
19 1 6.64408 1.64883 1.77311 0.00187447 0.259285 -0.271794
20 1 6.93321 2.01987 4.21568 -0.379349 -0.0189081 0.500045
21 1 7.19682 1.37406 6.61826 -0.393103 0.257951 0.454306
22 1 7.10197 4.53022 1.96578 0.0233098 -0.756974 0.38318
23 1 6.6755 4.36093 4.86286 -0.319736 0.262687 0.179726
24 1 6.5621 4.19079 7.12222 0.38049 0.351109 0.83647
25 1 7.07555 6.81904 1.53086 0.349218 -0.236114 -0.0338359
26 1 6.79378 6.81341 4.22482 0.421687 -0.617923 0.14388
27 1 6.55689 6.67837 6.81111 -0.118845 -0.219565 -0.794755
ITEM: TIMESTEP
10
ITEM: NUMBER OF ATOMS
27
ITEM: BOX BOUNDS pp pp pp
0 8.39798
0 8.39798
0 8.39798
ITEM: ATOMS id type x y z vx vy vz
1 1 2.12911 1.55615 1.54667 0.352136 0.144451 -0.306181
2 1 1.59902 1.50087 3.51799 -0.542398 -0.711464 0.263255
3 1 1.48475 1.67958 6.38575 -0.538624 0.206725 -0.0659802
4 1 1.63842 3.93113 1.34567 -0.186473 0.516745 0.0928654
5 1 1.35384 3.82476 4.40572 0.198924 0.664523 -0.431875
6 1 1.7014 4.30691 6.75911 -0.0896024 0.0592278 -0.258539
7 1 1.75527 6.58977 1.62058 0.851662 -0.113782 -0.173878
8 1 1.71173 6.79392 3.90709 -0.395637 -0.103687 0.513727
9 1 1.6565 6.7397 6.6496 0.506072 -0.00456314 -0.0107403
10 1 4.60951 1.4611 1.96448 -0.223754 0.820444 0.00841108
11 1 4.25713 1.75786 4.4982 -0.115774 0.328266 -0.581206
12 1 4.05664 1.7315 6.86717 0.20809 0.41579 -0.519318
13 1 4.49584 3.70993 1.54933 0.424603 0.10934 -0.10283
14 1 3.79449 4.40187 4.07662 -0.744292 -0.375927 -0.532883
15 1 4.11947 4.53743 6.93906 -0.482317 0.157841 -0.301212
16 1 4.67464 6.52361 1.72884 0.17256 -0.492848 0.111748
17 1 4.31995 7.17417 3.89792 -0.202227 -0.401451 0.305948
18 1 4.04926 6.95347 6.66245 0.200311 -0.329981 0.466474
19 1 6.64426 1.64992 1.77215 0.0355199 0.217335 -0.191033
20 1 6.93139 2.01978 4.21785 -0.363331 -0.0196481 0.433918
21 1 7.19488 1.37532 6.62031 -0.387838 0.252694 0.409089
22 1 7.10201 4.52632 1.96784 0.00812215 -0.778467 0.412049
23 1 6.67393 4.36231 4.86381 -0.314349 0.275414 0.189985
24 1 6.56361 4.19224 7.12647 0.302984 0.289221 0.850689
25 1 7.07739 6.81803 1.53064 0.367805 -0.203127 -0.0450716
26 1 6.79565 6.81054 4.22549 0.373113 -0.575348 0.134532
27 1 6.55644 6.67749 6.80711 -0.0899104 -0.176168 -0.799841
ITEM: TIMESTEP
11
ITEM: NUMBER OF ATOMS
27
ITEM: BOX BOUNDS pp pp pp
0 8.39798
0 8.39798
0 8.39798
ITEM: ATOMS id type x y z vx vy vz
1 1 2.13076 1.55701 1.54505 0.329637 0.172615 -0.323098
2 1 1.59627 1.49719 3.51931 -0.550638 -0.736111 0.263367
3 1 1.48202 1.68073 6.38529 -0.547369 0.23105 -0.0917275
4 1 1.63747 3.9337 1.34607 -0.190704 0.513831 0.0788924
5 1 1.35508 3.82817 4.40362 0.247959 0.680856 -0.419903
6 1 1.70124 4.30712 6.75787 -0.0321281 0.0421804 -0.248414
7 1 1.75953 6.58912 1.61973 0.850908 -0.129223 -0.170015
8 1 1.70998 6.79354 3.90967 -0.349959 -0.0746993 0.517028
9 1 1.6591 6.73948 6.6495 0.519675 -0.0442474 -0.0183639
10 1 4.60857 1.46529 1.96465 -0.187295 0.839552 0.034483
11 1 4.25627 1.75937 4.49538 -0.171435 0.300626 -0.563904
12 1 4.05761 1.73362 6.86442 0.194612 0.424894 -0.550114
13 1 4.49815 3.7105 1.54874 0.462688 0.114031 -0.116732
14 1 3.79092 4.40025 4.07412 -0.715079 -0.32365 -0.500414
15 1 4.11694 4.53805 6.93758 -0.505387 0.123883 -0.295106
16 1 4.67558 6.52125 1.72944 0.187793 -0.472768 0.120665
17 1 4.31889 7.17205 3.89953 -0.210563 -0.424029 0.322548
18 1 4.05027 6.95191 6.66462 0.200564 -0.312195 0.43402
19 1 6.64457 1.65082 1.7716 0.0612595 0.179553 -0.109768
20 1 6.9296 2.01972 4.21968 -0.358948 -0.0118969 0.366122
21 1 7.19299 1.37654 6.62205 -0.377785 0.24396 0.348476
22 1 7.10198 4.52239 1.97 -0.00717641 -0.786235 0.432904
23 1 6.67234 4.36374 4.86478 -0.318085 0.286759 0.193107
24 1 6.56475 4.19335 7.13081 0.228675 0.223618 0.868395
25 1 7.07936 6.81713 1.53041 0.394021 -0.179223 -0.0453722
26 1 6.79723 6.80788 4.22609 0.316882 -0.531226 0.120404
27 1 6.55612 6.67684 6.8031 -0.0641765 -0.131395 -0.80105
ITEM: TIMESTEP
12
ITEM: NUMBER OF ATOMS
27
ITEM: BOX BOUNDS pp pp pp
0 8.39798
0 8.39798
0 8.39798
ITEM: ATOMS id type x y z vx vy vz
1 1 2.13231 1.55801 1.54331 0.31143 0.199289 -0.347872
2 1 1.59349 1.49345 3.52055 -0.555424 -0.748107 0.248721
3 1 1.47928 1.68198 6.38476 -0.546903 0.249919 -0.106831
4 1 1.63654 3.93624 1.34634 -0.185749 0.507555 0.0538021
5 1 1.35659 3.83158 4.40161 0.302782 0.682745 -0.401605
6 1 1.7013 4.30725 6.7567 0.0128138 0.0251275 -0.234062
7 1 1.76373 6.58837 1.61891 0.840405 -0.151479 -0.165533
8 1 1.70847 6.79333 3.91229 -0.301639 -0.0421505 0.522414
9 1 1.66182 6.73912 6.64935 0.544051 -0.0716621 -0.0301538
10 1 4.60782 1.46953 1.96499 -0.150532 0.847876 0.0677182
11 1 4.25521 1.76075 4.49263 -0.211463 0.277441 -0.549285
12 1 4.05852 1.7358 6.86154 0.181224 0.434967 -0.574582
13 1 4.50063 3.71108 1.54812 0.496161 0.116471 -0.124263
14 1 3.78749 4.39888 4.07178 -0.685527 -0.273751 -0.468588
15 1 4.11429 4.53844 6.93615 -0.530499 0.0788226 -0.287437
16 1 4.6766 6.51902 1.73007 0.2051 -0.445196 0.127095
17 1 4.31788 7.16983 3.90123 -0.203665 -0.444681 0.339345
18 1 4.05127 6.95046 6.66662 0.20102 -0.290156 0.400723
19 1 6.64496 1.65154 1.77145 0.0792926 0.144746 -0.0299685
20 1 6.92775 2.01974 4.22117 -0.369278 0.00552574 0.298164
21 1 7.19118 1.3777 6.62342 -0.362728 0.230629 0.27472
22 1 7.10186 4.51849 1.97223 -0.0231601 -0.781028 0.445633
23 1 6.67068 4.36522 4.86572 -0.331524 0.295044 0.189832
24 1 6.56555 4.19413 7.13524 0.159215 0.155879 0.886517
25 1 7.08149 6.81633 1.53024 0.425345 -0.160982 -0.0342085
26 1 6.79851 6.80546 4.22662 0.255283 -0.484365 0.105744
27 1 6.55591 6.6764 6.7991 -0.0429883 -0.0862198 -0.800712
ITEM: TIMESTEP
13
ITEM: NUMBER OF ATOMS
27
ITEM: BOX BOUNDS pp pp pp
0 8.39798
0 8.39798
0 8.39798
ITEM: ATOMS id type x y z vx vy vz
1 1 2.13379 1.55912 1.54142 0.295884 0.223022 -0.378237
2 1 1.59074 1.4897 3.52163 -0.550945 -0.749555 0.214696
3 1 1.47659 1.68329 6.38421 -0.538084 0.262264 -0.109167
4 1 1.63569 3.93874 1.34643 -0.171185 0.499559 0.0194134
5 1 1.3584 3.83493 4.39969 0.361803 0.66965 -0.385695
6 1 1.70153 4.30728 6.7556 0.0448932 0.00675573 -0.218767
7 1 1.76783 6.58747 1.61811 0.82029 -0.178489 -0.159832
8 1 1.70721 6.79331 3.91494 -0.250959 -0.00566695 0.530708
9 1 1.66469 6.73869 6.64912 0.573296 -0.0868465 -0.0470269
10 1 4.60725 1.47376 1.96551 -0.114851 0.84523 0.103652
11 1 4.25402 1.76207 4.48996 -0.237164 0.264104 -0.534654
12 1 4.05937 1.73802 6.85861 0.169538 0.444875 -0.586737
13 1 4.50326 3.71166 1.54749 0.524592 0.114905 -0.125564
14 1 3.7842 4.39774 4.06959 -0.656828 -0.228926 -0.437285
15 1 4.1115 4.53857 6.93477 -0.557643 0.0250362 -0.275601
16 1 4.67772 6.51697 1.73073 0.22285 -0.410659 0.130909
17 1 4.31696 7.1675 3.903 -0.18391 -0.466231 0.355302
18 1 4.05227 6.94913 6.66844 0.200528 -0.265489 0.363476
19 1 6.64541 1.6521 1.77168 0.0904454 0.11074 0.0451864
20 1 6.92577 2.01991 4.22232 -0.395804 0.0332956 0.230996
21 1 7.18947 1.37875 6.62438 -0.342051 0.211833 0.191177
22 1 7.10167 4.51467 1.97449 -0.0386537 -0.764227 0.451442
23 1 6.66892 4.36671 4.86664 -0.352399 0.298099 0.184001
24 1 6.56603 4.19457 7.13975 0.096577 0.0882246 0.901309
25 1 7.08378 6.8156 1.53018 0.459021 -0.145248 -0.0116175
26 1 6.79946 6.8033 4.22709 0.190241 -0.431382 0.094456
27 1 6.55577 6.6762 6.79509 -0.0274438 -0.0418974 -0.801317
ITEM: TIMESTEP
14
ITEM: NUMBER OF ATOMS
27
ITEM: BOX BOUNDS pp pp pp
0 8.39798
0 8.39798
0 8.39798
ITEM: ATOMS id type x y z vx vy vz
1 1 2.13521 1.56034 1.53937 0.282319 0.242832 -0.410238
2 1 1.58807 1.48598 3.52243 -0.533003 -0.742812 0.160455
3 1 1.47397 1.68463 6.38372 -0.523195 0.267116 -0.0982771
4 1 1.63495 3.9412 1.34633 -0.147124 0.491977 -0.0215084
5 1 1.3605 3.83814 4.39779 0.420874 0.64339 -0.378308
6 1 1.70184 4.30721 6.75457 0.0638952 -0.0140465 -0.206417
7 1 1.77179 6.58644 1.61735 0.791711 -0.207101 -0.152138
8 1 1.70622 6.79348 3.91765 -0.198534 0.0346811 0.542051
9 1 1.66768 6.73824 6.64877 0.598995 -0.0902576 -0.0699671
10 1 4.60684 1.47791 1.96619 -0.0814449 0.831182 0.136845
11 1 4.25277 1.76339 4.48737 -0.251686 0.263995 -0.517076
12 1 4.06017 1.74028 6.85569 0.160278 0.451821 -0.584731
13 1 4.506 3.7122 1.54689 0.548131 0.107485 -0.120507
14 1 3.78106 4.39679 4.06756 -0.629473 -0.190426 -0.406653
15 1 4.10857 4.5384 6.93348 -0.586161 -0.0331153 -0.256952
16 1 4.67891 6.51512 1.73139 0.23857 -0.370022 0.132038
17 1 4.31618 7.16503 3.90485 -0.155122 -0.493355 0.369018
18 1 4.05325 6.94794 6.67004 0.194735 -0.238831 0.321476
19 1 6.64589 1.65247 1.77224 0.0953211 0.0756864 0.111418
20 1 6.92359 2.02026 4.22315 -0.436982 0.0707723 0.164753
21 1 7.18789 1.37969 6.62489 -0.315457 0.187771 0.102321
22 1 7.10141 4.51098 1.97675 -0.0517412 -0.737292 0.452257
23 1 6.66704 4.36818 4.86755 -0.375231 0.293122 0.18073
24 1 6.56625 4.19469 7.14429 0.0431074 0.0230985 0.90882
25 1 7.08625 6.81495 1.53029 0.492757 -0.129811 0.0215663
26 1 6.80007 6.80146 4.22754 0.122877 -0.36792 0.0883015
27 1 6.55569 6.67619 6.79107 -0.0172811 -0.000130202 -0.804919
ITEM: TIMESTEP
15
ITEM: NUMBER OF ATOMS
27
ITEM: BOX BOUNDS pp pp pp
0 8.39798
0 8.39798
0 8.39798
ITEM: ATOMS id type x y z vx vy vz
1 1 2.13656 1.56162 1.53717 0.270824 0.257978 -0.439848
2 1 1.58556 1.48234 3.52289 -0.501376 -0.728743 0.0918872
3 1 1.47145 1.68595 6.38335 -0.504987 0.263719 -0.074968
4 1 1.63438 3.94363 1.346 -0.114162 0.487006 -0.0654543
5 1 1.36288 3.84118 4.39589 0.475008 0.607808 -0.379976
6 1 1.70219 4.30702 6.75357 0.0698237 -0.0384734 -0.200359
7 1 1.77557 6.58527 1.61664 0.756108 -0.233812 -0.141683
8 1 1.70549 6.79387 3.92043 -0.144969 0.077945 0.555977
9 1 1.67074 6.73783 6.64827 0.611639 -0.082515 -0.10017
10 1 4.60658 1.48194 1.967 -0.0509914 0.804216 0.162623
11 1 4.25147 1.76478 4.4849 -0.258395 0.277711 -0.49397
12 1 4.06093 1.74255 6.85284 0.153369 0.453012 -0.569473
13 1 4.50883 3.71266 1.54635 0.56683 0.0929285 -0.108951
14 1 3.77804 4.396 4.06567 -0.603235 -0.158335 -0.377282
15 1 4.10549 4.53795 6.93234 -0.6152 -0.0901889 -0.229343
16 1 4.68016 6.5135 1.73204 0.249871 -0.324647 0.13062
17 1 4.31557 7.16238 3.90674 -0.1214 -0.530984 0.379027
18 1 4.05414 6.94689 6.67143 0.17777 -0.210484 0.276315
19 1 6.64636 1.65267 1.77306 0.0936572 0.0394168 0.164245
20 1 6.92115 2.02084 4.22364 -0.487145 0.11503 0.0985345
21 1 7.18647 1.38049 6.62496 -0.283764 0.160253 0.0135415
22 1 7.10111 4.50747 1.979 -0.0607731 -0.70156 0.45012
23 1 6.66507 4.36956 4.86847 -0.393869 0.277285 0.183607
24 1 6.56626 4.1945 7.14882 0.0011212 -0.0374372 0.905514
25 1 7.08887 6.81438 1.53061 0.525185 -0.113873 0.0634558
26 1 6.80034 6.80001 4.22797 0.0533945 -0.290421 0.0866231
27 1 6.55563 6.67638 6.78701 -0.0106566 0.037212 -0.811807
ITEM: TIMESTEP
16
ITEM: NUMBER OF ATOMS
27
ITEM: BOX BOUNDS pp pp pp
0 8.39798
0 8.39798
0 8.39798
ITEM: ATOMS id type x y z vx vy vz
1 1 2.13787 1.56297 1.53485 0.261814 0.268061 -0.464001
2 1 1.58327 1.47881 3.52299 -0.459521 -0.706813 0.0207239
3 1 1.46902 1.68721 6.38314 -0.485624 0.251953 -0.0412909
4 1 1.63401 3.94606 1.34546 -0.0729309 0.485981 -0.108365
5 1 1.36548 3.84402 4.39396 0.520418 0.567902 -0.387181
6 1 1.70251 4.30668 6.75255 0.0635229 -0.0676595 -0.202715
7 1 1.77914 6.58399 1.616 0.71473 -0.255997 -0.12761
8 1 1.70504 6.79448 3.92329 -0.0911627 0.122228 0.571681
9 1 1.67376 6.73751 6.64757 0.603403 -0.0641602 -0.138799
10 1 4.60647 1.48574 1.96789 -0.0234035 0.760509 0.17784
11 1 4.25017 1.7663 4.48259 -0.260172 0.30386 -0.463177
12 1 4.06168 1.74478 6.85012 0.148391 0.446405 -0.543439
13 1 4.51173 3.71302 1.54589 0.57977 0.0712793 -0.0909813
14 1 3.77515 4.39534 4.06392 -0.577646 -0.131847 -0.350066
15 1 4.10227 4.53725 6.93138 -0.644291 -0.141144 -0.19169
16 1 4.68144 6.51211 1.73268 0.255748 -0.276528 0.127258
17 1 4.31514 7.15946 3.90867 -0.0859852 -0.582281 0.384473
18 1 4.05486 6.94598 6.67258 0.144505 -0.181036 0.231762
19 1 6.64678 1.65269 1.77406 0.0845937 0.00389818 0.20016
20 1 6.91846 2.02164 4.2238 -0.537919 0.160738 0.031188
21 1 7.18523 1.38116 6.62461 -0.249184 0.132136 -0.0697061
22 1 7.10078 4.50418 1.98123 -0.0649875 -0.65818 0.446752
23 1 6.66305 4.37081 4.86943 -0.405109 0.248934 0.193521
24 1 6.56612 4.19404 7.15327 -0.0275907 -0.092074 0.888854
25 1 7.09165 6.81389 1.53116 0.555925 -0.0978219 0.110963
26 1 6.80025 6.79902 4.22841 -0.0178856 -0.197883 0.0878354
27 1 6.55561 6.67672 6.78291 -0.00509622 0.0684873 -0.820434
ITEM: TIMESTEP
17
ITEM: NUMBER OF ATOMS
27
ITEM: BOX BOUNDS pp pp pp
0 8.39798
0 8.39798
0 8.39798
ITEM: ATOMS id type x y z vx vy vz
1 1 2.13915 1.56433 1.53245 0.255924 0.27309 -0.480787
2 1 1.58121 1.47542 3.52279 -0.411765 -0.676239 -0.0408524
3 1 1.46669 1.68837 6.38314 -0.465778 0.232788 -0.000845913
4 1 1.6339 3.94851 1.34473 -0.0238188 0.488813 -0.145977
5 1 1.36826 3.84667 4.39198 0.555549 0.528388 -0.395475
6 1 1.70275 4.30617 6.75148 0.0470962 -0.101865 -0.214473
7 1 1.78249 6.58263 1.61545 0.669914 -0.272653 -0.109064
8 1 1.70485 6.7953 3.92623 -0.0385888 0.164973 0.588117
9 1 1.67661 6.73733 6.64664 0.571066 -0.0358212 -0.186501
10 1 4.60648 1.4892 1.9688 0.00202336 0.693036 0.180456
11 1 4.24888 1.768 4.48047 -0.259355 0.340052 -0.423045
12 1 4.0624 1.74693 6.84757 0.144902 0.430982 -0.509844
13 1 4.51465 3.71324 1.54556 0.584587 0.0440529 -0.0669493
14 1 3.77239 4.39479 4.06229 -0.552407 -0.109486 -0.325901
15 1 4.0989 4.53633 6.93066 -0.673366 -0.182569 -0.14418
16 1 4.68272 6.51097 1.7333 0.257286 -0.228057 0.123493
17 1 4.31489 7.15623 3.9106 -0.0509187 -0.647319 0.385698
18 1 4.05532 6.94522 6.67355 0.0921386 -0.151986 0.192861
19 1 6.64712 1.65255 1.77514 0.0676261 -0.0274912 0.217444
20 1 6.91555 2.02265 4.22361 -0.582248 0.2019 -0.0368816
21 1 7.18415 1.38169 6.62389 -0.214543 0.106206 -0.14344
22 1 7.10046 4.50114 1.98345 -0.064604 -0.608417 0.443228
23 1 6.66099 4.37185 4.87048 -0.4105 0.20897 0.209017