ITEM: TIMESTEP
0
ITEM: NUMBER OF ATOMS
500
ITEM: BOX BOUNDS pp pp pp
0 8.39798
0 8.39798
0 8.39798
ITEM: ATOMS id type x y z vx vy vz 
1 1 6.75094 4.76601 2.81066 1.84236 -0.853445 1.40616 
2 1 2.95905 4.4063 6.70221 1.88882 -1.93541 -1.21102 
3 1 3.08628 1.01424 0.820005 0.703233 -1.5119 -2.94513 
4 1 5.77925 0.778869 3.46082 -0.444074 0.735453 2.67241 
5 1 7.29241 2.20642 7.10077 -3.09605 1.60831 -0.165263 
6 1 2.86614 0.0847398 3.11948 0.53618 -0.970261 -1.78487 
7 1 5.12741 7.89568 5.83753 -0.738316 0.541226 0.130405 
8 1 4.16504 5.07584 5.42774 -2.6913 -0.991028 -0.105191 
9 1 2.21855 6.87834 3.92693 0.937673 -0.825017 -0.00838422 
10 1 0.906923 1.53011 3.40085 -1.29036 -1.46761 -0.610718 
11 1 4.79763 3.99015 6.80222 -2.96021 1.76178 -0.87838 
12 1 5.17498 0.0504654 1.06276 -0.21892 -1.66383 -1.94496 
13 1 5.84354 5.08597 7.99381 2.47629 2.68969 2.12573 
14 1 8.29291 1.58883 4.24352 -0.635964 0.740513 1.72636 
15 1 6.13341 1.5539 5.31817 -1.76753 2.68862 -0.159786 
16 1 8.31044 7.61835 7.71793 1.04486 0.0135743 -1.09053 
17 1 8.1098 7.64935 2.31521 -1.0948 -2.08126 0.304147 
18 1 5.03918 6.92759 7.32806 -2.15109 -3.6549 1.16101 
19 1 7.14786 4.52514 5.52465 -3.71928 2.79408 1.4828 
20 1 5.099 5.06134 1.67817 1.51966 1.14049 -0.15774 
21 1 5.86446 5.87869 1.1265 -1.25656 0.221413 -1.08977 
22 1 0.64488 6.21174 2.03489 2.93078 0.317901 -0.652818 
23 1 1.81754 2.83775 1.8929 -0.148323 0.080185 -1.74499 
24 1 4.36767 1.15632 3.56115 4.09086 1.56047 -0.263779 
25 1 1.8132 4.57401 2.28461 0.392842 -0.675029 1.92145 
26 1 3.37322 8.21625 4.71597 0.829339 0.0620443 2.17205 
27 1 6.35554 7.12543 2.41115 0.845241 -0.722227 -1.62381 
28 1 7.93696 2.36563 0.0346932 2.17789 -0.658132 1.40019 
29 1 2.48555 4.33867 0.119171 -0.165893 0.135767 0.0323376 
30 1 3.59342 2.03449 7.63808 -0.958884 0.157704 0.351134 
31 1 5.04905 0.485035 6.70617 0.838107 -1.1765 0.443914 
32 1 5.94095 6.04477 2.2419 4.71651 -0.72947 -0.565718 
33 1 7.50606 0.896884 4.3322 -0.809918 0.817691 2.06932 
34 1 7.21015 0.981089 7.10182 -2.18619 -0.684952 -2.15473 
35 1 1.40021 4.34517 5.96871 0.112804 0.102401 2.65802 
36 1 4.92331 4.6939 8.01054 -1.37259 -0.528025 0.783686 
37 1 6.80539 0.323517 3.84454 -0.762119 1.12461 1.372 
38 1 2.92946 3.80789 4.27672 0.267058 -1.09897 -1.36699 
39 1 5.96832 8.12626 3.74253 -0.898927 -0.680921 -3.30539 
40 1 0.349045 4.21532 6.41549 -2.90537 2.76974 -1.93948 
41 1 0.647678 6.85385 7.94229 1.21783 -0.375735 0.332851 
42 1 6.5243 2.56563 5.40789 -1.83771 -1.31767 0.394302 
43 1 7.03937 5.46718 5.09818 -2.32756 -0.743066 -0.759569 
44 1 2.08739 5.6565 7.36072 0.289823 1.52396 -0.807065 
45 1 2.46307 4.73236 4.35637 4.33409 1.01041 -2.27089 
46 1 1.74819 5.55685 2.60399 -0.470402 0.982263 0.811992 
47 1 3.38576 1.06122 4.48928 1.16754 0.636391 -0.695257 
48 1 2.38396 0.468462 2.24316 0.361059 0.826422 1.00201 
49 1 7.7397 6.55947 2.5693 0.844179 -1.07928 -1.35443 
50 1 4.82485 5.85148 5.64502 -0.446476 0.512919 0.22273 
51 1 3.03692 8.16039 1.69856 1.12186 -1.11027 0.994708 
52 1 2.66067 1.25215 5.41014 -2.28891 -0.215122 1.23685 
53 1 7.66108 4.73178 2.22371 0.504785 -1.2892 -0.428886 
54 1 7.08633 4.44639 7.23088 2.59722 2.95314 1.15875 
55 1 0.431659 4.83986 7.88265 0.812647 0.187696 4.43895 
56 1 7.83057 0.0732955 2.9502 2.77655 -2.94158 0.737972 
57 1 6.8354 7.34348 4.77519 -0.559805 -3.39101 1.9196 
58 1 1.92564 4.69134 7.04554 1.18853 2.6726 -0.162342 
59 1 3.55584 1.24307 8.38799 0.503403 -1.55533 -0.681244 
60 1 6.56537 1.24567 6.20355 1.2547 0.748007 2.79281 
61 1 0.312947 4.14913 0.26116 -0.386842 0.433355 -0.0296942 
62 1 5.18785 2.38536 7.82165 0.415014 2.22468 -1.25912 
63 1 1.65482 6.62423 1.84491 0.816922 -1.22112 1.40809 
64 1 0.829271 5.05111 7.02142 -0.557351 4.09609 0.981315 
65 1 4.7753 3.33041 4.37976 -3.2761 0.0903802 0.142485 
66 1 4.95446 8.37147 3.52322 1.0681 2.13918 -0.186285 
67 1 6.67548 2.15542 6.37981 3.2259 -1.05004 0.672057 
68 1 4.25951 1.85497 6.20124 -1.21674 1.49597 1.40919 
69 1 1.97502 3.86679 3.76367 -1.16693 -0.384638 0.36853 
70 1 4.71372 2.29216 2.06548 -1.28632 1.90979 -0.441729 
71 1 7.63616 3.43766 6.93004 -3.01568 0.534818 1.40526 
72 1 4.86468 3.6222 8.15755 -1.20273 -1.20791 1.17809 
73 1 2.19214 5.47555 1.61533 1.03961 1.01269 -1.93135 
74 1 5.09474 5.52734 4.68063 -2.54816 -2.083 -1.19538 
75 1 5.7718 6.83138 1.54653 1.93477 1.98773 0.535761 
76 1 4.00043 3.49618 0.18652 0.959322 0.399515 -0.816223 
77 1 4.40082 1.29274 7.86442 1.05406 -2.06171 -1.71302 
78 1 5.95687 2.38098 7.12925 0.28561 0.559874 1.32323 
79 1 5.05822 6.61387 2.58063 -0.153415 0.813692 0.825723 
80 1 7.46076 4.70541 3.71154 -0.113102 2.20496 -0.499491 
81 1 7.32338 7.21672 7.29789 0.730529 2.45695 0.880228 
82 1 3.67358 5.11075 3.27163 1.55514 -0.750576 -0.27464 
83 1 6.22643 2.76455 8.13984 -2.1904 -0.0261605 -0.404441 
84 1 7.72659 4.63493 6.49375 -0.576174 -0.54779 0.310313 
85 1 0.915263 2.50964 4.80367 -0.361686 -0.303668 -0.394788 
86 1 2.59637 3.70584 5.92118 -1.37807 0.207711 -2.61099 
87 1 4.76216 2.19796 0.285534 0.804097 -1.4766 -1.82014 
88 1 0.649372 1.80358 7.31847 -1.05938 0.920572 1.09504 
89 1 0.616658 0.622187 8.11722 -0.940893 2.9269 -3.19783 
90 1 6.49743 1.86726 0.427273 -2.14307 -0.0670246 0.503329 
91 1 1.45387 0.62286 7.55529 0.000966772 1.92831 0.222778 
92 1 8.07933 4.18894 7.54602 0.280491 0.393029 2.03657 
93 1 3.88238 4.82899 0.589101 0.906034 -0.622311 1.36815 
94 1 2.07915 8.03585 6.23481 0.624246 2.59621 0.621381 
95 1 7.55057 0.987509 2.42838 0.874111 0.444358 -1.62817 
96 1 1.72602 8.1718 1.88455 0.0317785 -2.67582 -2.21495 
97 1 5.35976 7.81699 2.02152 -1.11276 -1.72219 3.09111 
98 1 1.9638 2.19058 4.5272 0.125619 2.02911 0.0412619 
99 1 2.40974 5.23269 6.22982 -1.9218 -0.19604 -0.288015 
100 1 6.53679 2.721 1.37952 1.64904 1.64762 -1.0473 
101 1 3.79879 3.97893 3.94431 0.0983997 0.087668 -0.489473 
102 1 5.75255 3.98207 1.6367 -0.649537 -2.33076 -0.252305 
103 1 6.8555 6.1358 1.17555 -0.432734 -0.813687 1.91936 
104 1 3.32527 5.56752 5.72497 1.10731 -0.0137641 -0.141432 
105 1 0.00608143 6.5254 7.07562 0.187322 -1.57054 -2.45175 
106 1 2.42478 3.26185 0.450233 0.715348 2.43071 -1.08872 
107 1 1.11206 8.36403 6.07391 2.72814 -0.706054 1.37697 
108 1 1.27383 2.8357 7.19268 -1.04905 -0.842277 0.61091 
109 1 2.72803 2.59783 8.14307 -0.310318 2.29912 0.959139 
110 1 3.44982 4.06616 5.79343 -1.54325 1.16977 -2.12413 
111 1 4.06786 1.49652 2.34903 -0.147782 2.15237 2.72519 
112 1 3.87339 7.51449 7.28795 -0.36907 -4.16357 -0.201214 
113 1 0.278745 7.88808 5.92321 0.945704 -0.205609 0.679824 
114 1 1.36347 4.03551 0.0693468 -1.62912 -1.8485 1.2535 
115 1 4.52143 0.808139 4.49632 0.115196 -0.321391 -1.03667 
116 1 2.07217 3.49525 7.58256 -0.340536 -2.38256 0.735186 
117 1 3.05874 7.13083 6.36178 -0.335533 -0.218063 -0.0289053 
118 1 0.287556 4.55661 4.0001 -0.659629 0.576744 -0.297087 
119 1 7.13832 0.857349 1.25253 1.30435 -0.969626 -1.88173 
120 1 4.90666 7.0946 5.14543 -3.04059 1.75992 0.887377 
121 1 3.22706 3.79142 0.662316 0.413436 1.224 -0.281332 
122 1 2.60547 6.17731 6.44982 -2.273 0.0625806 -0.750954 
123 1 1.79777 5.09834 0.615655 0.0144613 0.459421 -2.36138 
124 1 3.23609 0.844502 2.29513 -1.97759 0.530957 -1.38562 
125 1 6.52464 1.41797 7.63748 -0.845224 -3.9227 1.09898 
126 1 0.691663 2.00511 0.0192971 2.77389 2.64898 1.84228 
127 1 5.24163 7.95984 4.37629 1.47874 -1.25429 -4.28259 
128 1 4.21819 7.56124 3.98094 -0.723686 -1.28955 -0.342766 
129 1 4.68831 5.49097 0.647806 -1.20666 1.88807 3.33206 
130 1 1.98496 7.01019 6.2284 -0.13056 2.52065 -0.524311 
131 1 1.72482 6.04523 3.48507 1.28685 -1.36278 0.0896286 
132 1 3.8435 2.58962 1.5974 -1.14178 4.10658 -0.00548997 
133 1 6.97371 7.90553 2.37231 0.70579 0.95589 -2.03245 
134 1 5.71402 7.43894 0.603838 -0.665643 -0.402907 0.409963 
135 1 8.18935 1.43827 6.3711 -1.30852 -0.00269832 0.112712 
136 1 4.28235 8.19013 6.30737 2.80608 -0.288375 1.11704 
137 1 4.48694 8.22988 4.94462 0.857616 -3.14308 1.96844 
138 1 5.93449 2.23204 4.61523 -0.449823 0.137084 2.32699 
139 1 3.5069 7.75974 2.8546 0.994974 -0.42231 -0.262034 
140 1 8.15996 0.523032 5.11408 0.536531 1.59228 -1.16016 
141 1 5.61943 2.61701 3.64076 1.0306 2.85266 -1.28135 
142 1 0.324337 2.75914 1.83426 2.45506 -0.033826 0.788389 
143 1 4.41513 8.1362 1.76463 -1.63136 1.8962 -2.35675 
144 1 8.20355 7.84909 1.26717 1.27588 -1.51701 -0.881629 
145 1 6.99583 6.83298 1.81975 -0.987681 -0.8469 -0.332997 
146 1 6.7286 5.17385 0.845787 3.44959 -0.0618289 1.62543 
147 1 6.44083 3.9823 5.02444 -1.153 -0.0895189 0.360519 
148 1 2.78708 5.85591 2.31667 2.63797 2.50555 2.6676 
149 1 3.24884 1.80688 6.18993 0.77437 0.130778 -1.142 
150 1 3.70576 6.60899 6.81109 -0.604227 -3.31132 1.45858 
151 1 1.0239 1.56536 2.05473 3.33821 0.776584 -0.739914 
152 1 8.03777 0.475983 0.964883 2.29197 1.93155 -0.325074 
153 1 0.287003 3.00518 2.96024 0.461471 2.03618 0.465946 
154 1 5.76982 6.20764 7.66276 -0.711318 -3.13132 0.464243 
155 1 6.74695 8.13024 0.604815 -0.392829 -0.954309 -0.545582 
156 1 2.08752 0.316061 5.37972 -2.68481 -0.981531 2.13409 
157 1 6.76291 6.65869 5.7931 -2.37872 -1.05145 -0.0495705 
158 1 4.05047 4.68582 6.41256 -0.931414 -1.12539 2.31643 
159 1 7.42863 8.20743 4.77447 0.159057 -0.845342 -0.0342361 
160 1 3.30407 2.79299 5.91762 -0.942529 0.269581 1.63667 
161 1 8.23137 5.57812 3.99379 -0.16583 -1.85468 3.10443 
162 1 2.24273 7.45172 1.38717 -1.10525 -0.960202 -1.54991 
163 1 5.75485 3.57563 7.41717 0.597855 0.677959 2.10567 
164 1 0.850865 3.6963 3.52221 -0.323386 0.613058 0.878447 
165 1 0.990197 6.51987 6.87527 1.00696 -1.09762 -1.48721 
166 1 2.66291 1.51144 1.99847 2.77678 1.40625 -1.84158 
167 1 4.75839 6.43727 0.978918 0.552442 -1.32592 0.514277 
168 1 8.30309 4.79564 1.07235 1.19754 1.58979 1.27277 
169 1 6.47222 6.35192 4.83146 2.41171 1.55471 1.07185 
170 1 6.52065 3.00999 2.54482 -2.32494 -0.22909 -0.569318 
171 1 2.56518 3.7473 2.4151 1.23451 1.70648 1.68209 
172 1 6.59884 6.31345 6.73239 -0.0761875 1.62166 0.856219 
173 1 6.53 5.81341 8.15979 -1.3607 -0.0904436 0.950772 
174 1 0.373261 7.36212 4.17636 0.417654 0.12085 2.47251 
175 1 6.97976 7.1965 0.819284 -0.0200824 -0.707321 -0.398783 
176 1 3.05231 6.98195 2.05375 0.446182 0.288957 -0.373791 
177 1 2.3045 0.115055 8.18033 -0.641492 0.856413 -1.64868 
178 1 2.20737 6.14956 5.51946 0.554413 1.01725 -0.631859 
179 1 4.95902 7.86604 7.15618 1.7203 0.0846827 -0.943285 
180 1 5.15244 2.83165 6.75134 1.45845 -0.175337 0.73967 
181 1 0.0588911 3.35889 8.05189 2.39793 0.64552 0.64595 
182 1 1.40768 5.71209 6.28462 -2.43445 -0.71809 0.725444 
183 1 5.86545 7.68271 8.03924 -0.430487 -3.28782 0.102311 
184 1 4.55544 7.6196 2.68288 1.74349 -1.74749 1.81458 
185 1 0.549735 2.43765 6.26971 1.27658 -1.10534 -0.304352 
186 1 4.98761 1.8955 4.13188 -1.35676 0.0916728 -1.46523 
187 1 2.76995 7.61234 5.55807 -0.448416 -0.369112 1.3457 
188 1 4.15464 4.05568 2.69921 0.927137 -0.182132 -1.43913 
189 1 4.9896 1.94476 1.19775 -0.641598 -1.85658 -0.743717 
190 1 6.22526 5.83227 3.98622 2.13053 -2.04435 -0.296712 
191 1 5.74835 4.55498 0.645696 0.588478 0.365548 0.074141 
192 1 7.21646 6.03314 4.00718 2.14207 -2.6598 -1.78434 
193 1 1.03335 0.160429 3.50906 -1.16573 -0.344654 3.8672 
194 1 2.58691 1.95579 7.46155 -1.94272 -0.616333 -0.27715 
195 1 4.96637 7.93617 0.0806451 2.02876 0.364251 0.745143 
196 1 2.59494 4.56548 5.27419 -1.26871 1.69774 3.22917 
197 1 7.36646 0.00605425 7.93716 0.475911 0.99947 -2.29731 
198 1 1.17319 5.96416 4.92099 -2.03107 0.768704 -0.213881 
199 1 8.20921 4.98523 5.83475 1.5671 -0.298483 -2.45195 
200 1 5.70983 3.3293 5.51676 0.252042 2.07292 -3.06495 
201 1 5.2657 4.55951 5.82277 -3.61948 -0.697978 1.36675 
202 1 3.79368 2.52524 0.551659 1.41416 -2.44689 -1.08783 
203 1 7.84189 6.5306 6.12032 -2.12606 -1.52694 -2.09185 
204 1 6.73497 3.03113 3.67969 -1.31785 -3.65405 2.45309 
205 1 3.67197 2.92877 2.63141 -0.0292046 0.394573 -2.31902 
206 1 5.50961 2.88939 1.66581 3.50206 0.818367 -0.589197 
207 1 1.17614 4.31389 4.37622 -0.887487 1.85552 -0.325437 
208 1 5.24538 6.01548 3.35551 0.734629 -1.86239 1.32849 
209 1 3.15858 2.17926 5.12568 2.00447 -0.245958 -0.358553 
210 1 2.68807 1.58963 0.138635 -3.21594 0.648794 0.595558 
211 1 1.87966 7.24826 0.453926 -0.17984 1.31424 -3.18886 
212 1 1.00282 7.16688 5.90278 1.22074 -0.00188963 0.841746 
213 1 6.8911 7.4609 8.24203 0.0598217 -0.115474 -0.42612 
214 1 8.39585 1.36737 0.591327 2.73098 1.64491 0.640937 
215 1 6.23053 7.79006 1.36786 0.391425 0.249766 -2.78486 
216 1 7.44731 1.44716 0.401734 -0.970533 -2.96688 0.0575504 
217 1 4.72027 6.63056 4.12575 -2.15679 0.273618 -0.14684 
218 1 0.391384 2.8763 0.800552 3.609 -1.27508 0.590265 
219 1 7.686 2.80568 2.81502 0.472689 1.99176 0.605349 
220 1 7.88247 3.39387 0.72612 0.893844 -1.2692 2.86552 
221 1 0.699886 4.07199 1.16642 -2.32045 -0.104911 -0.531338 
222 1 1.97313 0.783145 1.33907 -0.945802 -0.622202 2.9664 
223 1 6.85036 0.607776 5.42757 0.627567 1.33945 -2.9982 
224 1 3.95598 4.26141 8.06591 -0.50841 -0.988331 -2.04215 
225 1 0.464467 5.45254 2.62277 2.60544 2.06305 0.581663 
226 1 3.45621 0.664194 5.53792 -0.73303 -1.01802 -1.22678 
227 1 3.40962 8.13127 6.59957 0.440303 0.974755 1.60105 
228 1 7.21426 7.87885 1.47004 0.930203 0.860547 1.61057 
229 1 4.23762 5.88941 3.0311 2.08085 -2.13519 -1.32453 
230 1 3.82755 3.94766 7.2301 0.38385 1.31177 -0.806337 
231 1 2.36084 7.82102 4.60042 -0.0841026 -1.35175 2.73346 
232 1 8.08391 7.32329 5.25767 1.34781 0.459349 1.01372 
233 1 5.81247 2.18917 2.3272 -0.636454 0.889674 -0.653635 
234 1 0.759588 7.5846 6.83191 -3.75028 1.59597 0.619934 
235 1 8.18201 4.12289 2.98027 0.0633531 -3.25267 0.294245 
236 1 1.94971 6.69304 7.33003 0.154491 1.68187 1.26741 
237 1 5.77863 1.65578 1.46796 0.688797 -0.913425 -0.425958 
238 1 1.56869 3.1635 4.26486 1.70364 -2.13065 0.347091 
239 1 1.25203 8.33851 4.44556 -0.246309 -0.313169 1.33034 
240 1 2.6064 2.38646 0.748187 -0.57524 -0.9124 1.04441 
241 1 0.200908 4.09789 5.22681 -0.439911 0.197947 3.05085 
242 1 5.04611 6.72539 8.34121 -2.58358 1.10992 0.261015 
243 1 7.09335 2.13118 7.98764 -0.120321 -0.286686 1.1839 
244 1 5.65405 3.25147 0.329797 1.32405 -0.530886 0.179514 
245 1 5.71696 6.50692 5.47868 -0.760764 0.848712 -0.137737 
246 1 0.199243 5.60282 0.0293314 -0.333163 -0.773511 -0.414835 
247 1 4.97117 4.16922 2.12861 -2.61729 1.27185 -1.70963 
248 1 7.64372 1.3224 5.44874 0.147169 -0.0970096 0.330419 
249 1 4.65409 2.67938 3.33263 -0.170461 2.65476 1.55654 
250 1 2.18324 1.1125 4.43202 -1.95826 -0.568242 -1.3757 
251 1 3.00879 0.757897 6.44003 -0.574467 -2.10103 0.171363 
252 1 5.90385 0.70898 7.42608 -0.218317 0.798792 2.32691 
253 1 1.88837 7.87654 3.49926 -0.0228528 -0.689847 1.38767 
254 1 3.75326 6.7841 0.238188 -0.872804 0.502165 3.35383 
255 1 5.56488 5.87982 0.206157 1.56678 0.0329736 2.55778 
256 1 0.378784 3.31616 6.75651 1.05414 0.577023 -1.63799 
257 1 7.86394 6.44872 7.96916 -1.06946 1.46461 4.95137 
258 1 7.61801 7.00101 4.01101 -0.2056 0.498309 -1.6826 
259 1 6.02008 5.3187 4.91641 -1.12312 -0.302578 -0.677824 
260 1 1.61381 4.96775 8.11129 1.96011 -1.34526 -3.8114 
261 1 4.60199 2.86607 1.02019 0.991504 -0.2831 -1.75955 
262 1 6.7676 3.37189 5.96135 1.27675 -1.24884 0.367912 
263 1 6.31377 7.88892 5.77976 -0.559138 -0.258477 0.0914225 
264 1 0.792613 7.37433 1.46627 2.15606 1.58 -1.11642 
265 1 7.04673 6.68411 3.27213 0.916134 0.689835 2.59911 
266 1 7.22264 2.92738 4.82326 0.582056 -3.8443 0.652439 
267 1 5.48981 7.18614 6.35583 -1.60435 -0.28904 0.459052 
268 1 7.22241 5.54782 6.05764 0.831003 1.47312 0.366678 
269 1 1.78407 3.52779 6.65897 -0.218498 -3.27403 -0.563296 
270 1 7.13844 3.15297 8.19021 0.748356 -1.45092 1.9784 
271 1 6.32596 3.7845 8.21376 1.4128 1.03199 -2.23357 
272 1 4.08597 1.62911 4.98565 1.40376 -0.60082 -0.73286 
273 1 4.28141 3.35765 6.2176 1.27176 -3.06187 0.828086 
274 1 2.26865 0.994803 7.39876 -1.96881 -0.722714 -0.0729368 
275 1 0.294825 5.24047 5.07015 -1.65744 1.77247 -1.75267 
276 1 0.842798 7.07894 5.02257 -0.496627 0.771079 3.3209 
277 1 3.99205 6.55534 7.68956 -1.11901 0.165667 -0.908206 
278 1 2.89616 5.09385 7.9493 -1.74648 1.94476 -2.48135 
279 1 4.31272 2.27828 7.13768 -1.04423 -1.25633 2.47028 
280 1 6.7338 1.82328 1.52371 -0.898542 -0.710971 1.40648 
281 1 8.26637 0.311586 6.13369 -0.126588 -0.347724 0.859035 
282 1 3.66905 6.61829 2.6835 -0.0517664 -2.78292 -0.48438 
283 1 3.44479 0.90301 3.33133 -0.763095 2.67136 3.28031 
284 1 8.27251 0.575596 7.31509 -0.926387 1.00632 1.47759 
285 1 3.0983 5.44629 4.43013 -3.0603 -0.328391 -1.37894 
286 1 7.26233 3.68479 1.85607 -2.17901 -3.24956 -0.213353 
287 1 5.96449 3.16422 4.46408 -2.04363 1.44373 0.201395 
288 1 6.60191 8.1315 7.3285 0.291369 2.61107 1.06054 
289 1 1.25599 1.22891 4.32768 -0.96579 -2.57227 0.240411 
290 1 1.81306 3.2452 2.90411 0.526045 -1.22481 -1.35062 
291 1 6.09935 5.63381 6.13016 1.11947 0.434552 -0.534318 
292 1 7.93156 1.65453 7.74472 2.87903 0.468754 0.721868 
293 1 8.08679 8.10863 4.02985 -0.244261 1.00947 1.54725 
294 1 5.50497 7.37508 2.98325 0.921475 -0.210705 1.85255 
295 1 8.14408 2.58825 4.59095 -1.15464 0.43515 -2.15752 
296 1 8.29562 5.78871 1.25035 0.382155 -1.1619 -0.297813 
297 1 4.00052 5.06961 2.37658 0.156725 -0.939909 -0.469677 
298 1 4.12805 3.1223 7.66732 0.153943 -0.385944 -2.1676 
299 1 0.41918 7.71729 3.22287 0.326782 0.447142 1.6289 
300 1 0.690945 6.84417 2.824 -1.73562 -2.09233 0.789249 
301 1 0.845243 6.95522 0.522652 1.09512 -0.547983 -0.527983 
302 1 7.06763 5.41583 1.76636 -1.22956 -0.652067 0.953401 
303 1 1.50576 1.66519 5.56312 0.513646 2.25891 -1.99896 
304 1 6.89643 7.76505 3.38004 -1.45381 -1.36042 -2.03465 
305 1 2.25221 2.80109 5.30239 1.04879 -2.69694 2.89034 
306 1 7.67221 6.24855 5.00564 -1.75502 0.628695 -0.550139 
307 1 2.87306 5.4174 0.736625 0.0886064 1.33289 0.0189774 
308 1 4.34813 4.48827 1.44271 -1.71461 -0.503627 1.82211 
309 1 2.94391 3.99635 7.67716 0.339166 1.60415 -2.47647 
310 1 3.63716 4.5488 4.76666 -1.32945 1.03661 -1.03402 
311 1 4.00796 7.86184 0.667929 1.40595 -1.39855 2.50623 
312 1 0.642447 3.45011 4.52595 2.63856 -0.75913 -0.912152 
313 1 1.6977 1.90084 7.70879 0.514328 2.18481 1.47643 
314 1 6.39821 8.33715 4.69569 0.762305 0.35885 0.347995 
315 1 4.30941 3.48978 1.70411 -0.143062 0.398815 -0.863101 
316 1 8.35552 6.39198 3.39719 -1.46779 -0.663878 -1.95354 
317 1 2.07362 3.76462 5.05234 -0.850705 -0.52018 -1.04657 
318 1 7.71054 7.93072 0.391904 0.754868 -2.35405 3.31838 
319 1 0.421422 5.71229 6.42147 2.24428 -1.17526 -0.135582 
320 1 5.14407 5.60665 2.43638 1.32703 -2.81499 -1.22048 
321 1 3.01499 4.23193 3.14445 -0.349176 -0.0770126 0.975513 
322 1 6.0243 4.44892 7.13905 0.525768 -0.190068 0.925494 
323 1 7.93389 6.74957 1.46466 -0.111367 0.419874 0.92199 
324 1 3.18104 6.05255 7.79 0.409366 3.58388 1.53853 
325 1 6.59764 4.86902 4.28456 0.595906 0.675901 -0.0156237 
326 1 6.13764 7.15514 7.06452 -0.750116 -2.0304 1.48688 
327 1 3.7526 2.18799 3.62464 1.27042 0.0721036 -1.81167 
328 1 0.416739 1.82114 5.3456 -0.875293 1.98139 -0.249716 
329 1 4.43379 5.83088 1.81577 -0.174261 -1.27604 -1.7167 
330 1 7.04367 3.81285 4.26297 1.56125 0.0518003 -0.0566035 
331 1 7.96781 5.4385 3.04026 -0.247711 1.03518 -1.25047 
332 1 7.85066 3.19444 3.80979 0.9471 -0.497873 1.76203 
333 1 5.756 3.93669 6.34747 -1.63018 1.76366 1.29733 
334 1 3.54328 5.3751 1.59218 -1.98181 -0.936334 0.995964 
335 1 1.50204 4.84541 3.65921 -0.953334 1.44918 0.0136521 
336 1 2.95277 4.77086 2.29565 2.50763 -1.88796 -0.948729 
337 1 1.10962 0.87741 1.21906 -1.18396 0.384667 0.801965 
338 1 0.250468 2.0011 2.57097 1.63173 -0.537297 1.29725 
339 1 1.06977 3.30748 6.00623 -1.87147 -1.00888 -0.806568 
340 1 7.00019 1.92383 4.80417 0.849766 -0.0534031 0.622112 
341 1 6.74791 0.637469 2.78206 -2.27801 1.57827 -2.12702 
342 1 5.6985 1.39147 8.29382 0.726917 0.650191 -3.16933 
343 1 0.455153 0.627415 4.17786 2.13263 0.762478 2.76002 
344 1 4.01562 6.43714 5.90723 -0.1903 2.46307 -0.876264 
345 1 7.6236 1.92196 2.27981 -0.27859 -0.278767 -0.0688579 
346 1 1.44615 1.65717 6.63788 1.80358 -1.63097 -2.55892 
347 1 7.63731 2.71519 1.67615 -1.56907 -1.36696 -0.564899 
348 1 7.28997 0.186558 6.49565 -1.72495 -0.464864 -4.69364 
349 1 2.4907 0.081961 0.795266 -0.358278 1.86183 0.887412 
350 1 6.12577 0.99856 2.10325 -1.79887 -0.399963 1.65605 
351 1 5.36041 5.07734 6.77601 0.410626 1.56019 -2.5866 
352 1 6.76501 3.69379 0.900405 -0.967634 -0.544212 -0.0400885 
353 1 3.80687 2.75435 4.38629 2.35068 2.50758 1.30338 
354 1 2.44319 2.52907 6.26243 0.0769995 0.347527 -0.341413 
355 1 4.08253 8.1678 8.13763 -0.582789 3.25917 -0.0580618 
356 1 2.89849 3.31925 3.30627 1.62678 -0.987072 -1.68011 
357 1 2.68376 2.79358 4.21406 1.84216 0.348529 0.231702 
358 1 5.76487 4.36814 2.77268 1.14334 0.476843 0.646339 
359 1 5.21831 3.1611 2.70725 0.934392 2.69984 0.188338 
360 1 7.44385 2.28859 5.7576 0.784336 0.0660373 -0.595748 
361 1 0.76635 4.94054 0.609575 0.951072 0.746564 0.759588 
362 1 2.86616 1.80354 3.81307 0.333697 -2.29916 -1.58061 
363 1 1.6819 3.88199 1.14932 -0.765555 0.976555 -1.68846 
364 1 6.96381 1.70674 2.89852 -1.46971 2.03538 -0.0273901 
365 1 5.51478 0.384649 8.37618 0.265885 -1.07908 2.61564 
366 1 3.19791 2.74397 6.97516 -0.373673 2.00001 0.105312 
367 1 5.57405 4.6401 4.00012 1.24114 -0.465782 1.93688 
368 1 0.208428 6.40016 5.48144 -0.27119 1.11027 -1.46517 
369 1 0.592337 0.0435927 7.01917 -2.2228 -0.717644 0.101234 
370 1 2.00339 0.64241 6.35909 2.43022 -2.56064 1.88697 
371 1 6.42308 0.0752003 8.19559 0.784027 -2.0009 -0.489631 
372 1 0.634857 0.993893 6.16878 -0.912133 -1.47052 -2.21941 
373 1 2.44604 5.21908 3.41322 -0.865238 -0.462623 1.02567 
374 1 7.43598 6.0469 7.15179 0.215935 -1.61392 -3.90789 
375 1 3.24522 0.516991 7.31702 0.0114688 -0.536725 -2.99232 
376 1 8.06233 0.639714 8.32101 2.85553 0.820977 1.34879 
377 1 4.14638 0.148876 7.1884 -0.608974 -0.0340748 0.577752 
378 1 1.10896 3.95543 7.46193 -1.43971 0.444664 -2.43 
379 1 4.8331 3.97274 0.674285 1.46272 -1.80496 1.46678 
380 1 5.4579 4.36579 4.91162 -1.23514 -3.06697 0.270818 
381 1 2.89965 6.67197 4.73931 2.03783 -0.991595 -0.0358434 
382 1 1.74156 2.25929 3.55767 -3.53623 2.21509 4.76549 
383 1 0.728877 5.87032 3.62243 -2.21012 0.903846 -1.64664 
384 1 4.99045 3.79295 3.42391 -1.76522 -2.95766 -1.35659 
385 1 1.1218 3.02385 0.131757 -0.227002 0.564792 -0.990161 
386 1 7.67864 0.257891 1.90606 1.5094 3.36653 -0.204941 
387 1 6.19378 3.89959 3.55788 -0.357989 1.50724 2.57829 
388 1 3.03057 7.54701 0.747629 1.31982 -0.178938 -0.0235947 
389 1 1.56284 1.86124 1.21038 2.02844 0.836046 -0.50437 
390 1 1.13009 5.94868 0.664823 -2.66981 -1.63 2.48322 
391 1 3.77482 0.226512 1.14545 0.596069 -0.644072 -2.2986 
392 1 0.647474 1.87493 1.13817 0.194351 -1.79267 -0.393762 
393 1 1.3887 0.331285 0.321576 0.514878 -1.78584 0.14574 
394 1 4.41519 7.26173 6.58795 -1.10079 -0.617835 0.860639 
395 1 1.7181 2.3681 0.306955 1.18063 -1.33799 -2.65715 
396 1 6.09266 6.63264 0.184709 -1.29543 -0.0350543 -4.18132 
397 1 7.25468 2.6508 0.616727 -3.49777 2.87628 -1.30561 
398 1 5.92232 5.36246 3.10643 1.18891 -0.460264 0.290865 
399 1 0.454677 0.810852 2.79146 -0.635205 -0.199738 0.177996 
400 1 2.7341 7.34044 7.16414 2.14819 1.13056 0.335297 
401 1 7.80893 1.80667 1.3094 -2.86696 -1.30675 -2.91416 
402 1 4.34839 6.81574 1.90743 0.392593 0.729276 -5.4836 
403 1 3.73774 7.60025 5.69733 0.471703 1.48583 0.808276 
404 1 4.68538 4.84711 3.31906 -1.31232 0.0726204 -3.55095 
405 1 4.68128 2.91311 5.53379 -2.53929 1.23783 -0.495479 
406 1 4.90753 7.48311 1.18298 -1.05761 2.57107 -0.330561 
407 1 5.19165 1.5308 7.10401 0.106487 1.71105 1.40256 
408 1 5.89572 8.17152 6.68365 -2.28383 1.99506 1.58254 
409 1 4.68264 4.4108 4.36041 -1.97994 -1.94013 0.916498 
410 1 0.950474 3.30849 2.23774 3.74399 5.22889 -1.65535 
411 1 4.02155 5.05125 7.4751 3.03759 -2.34276 1.21488 
412 1 4.10779 0.95043 6.73961 -0.284957 -0.41655 1.58377 
413 1 8.2488 2.60282 7.49631 -1.16985 -2.10224 0.322189 
414 1 7.73754 7.62737 6.28457 -0.878173 -2.11755 0.42483 
415 1 0.930756 0.600094 5.25357 -1.42726 0.0823753 0.076394 
416 1 2.60918 3.62543 1.43377 -2.70517 -1.06078 0.626281 
417 1 7.82995 4.74853 4.77414 -1.95655 -0.335187 1.33105 
418 1 3.06483 1.87291 2.80169 -2.27318 1.11906 -4.35866 
419 1 5.52292 0.848795 4.46771 -0.598615 1.64305 -2.897 
420 1 3.73994 8.34423 3.6369 1.02642 0.854809 3.56571 
421 1 1.67564 4.95116 5.19812 -1.01714 2.67555 -1.02059 
422 1 3.54307 5.4757 6.66386 -0.284507 0.378082 -0.186976 
423 1 1.06514 6.78725 3.78364 -0.0581977 0.977431 -0.625505 
424 1 2.84507 2.71358 1.84635 0.809157 0.0417713 1.36155 
425 1 6.71267 4.83693 8.23795 0.801589 1.65116 1.52629 
426 1 4.10436 6.60756 5.06076 0.30413 -0.811544 -3.1462 
427 1 6.78835 7.58011 6.53918 2.27961 -0.673721 0.221942 
428 1 4.44072 0.873109 1.56669 -1.11553 -1.03557 -0.419222 
429 1 6.27714 0.88238 0.758579 0.337345 2.19525 -1.35386 
430 1 6.77211 5.71694 2.86211 -1.17463 0.37544 -3.65688 
431 1 7.25633 2.24961 3.97663 -2.44695 -0.974747 -0.236323 
432 1 1.34955 8.00364 1.00484 1.77791 1.11632 0.0991122 
433 1 0.948306 4.32472 2.30236 0.654742 -0.175673 -2.09616 
434 1 4.38004 4.07146 5.35504 -3.10918 -1.44552 -0.017634 
435 1 1.21545 5.93166 7.88653 1.21071 -3.07012 0.281472 
436 1 1.51375 7.71997 7.6215 -0.747827 -0.602938 -1.67956 
437 1 7.37798 4.47548 1.2559 -1.63756 1.62081 0.839245 
438 1 6.23642 4.64797 5.91598 -0.435768 0.0468058 0.564831 
439 1 0.739731 5.132 1.61449 -2.28483 0.58275 3.65193 
440 1 8.02465 5.60219 2.11372 -0.29842 0.212584 -2.83657 
441 1 3.05567 7.44684 3.79434 1.15726 -1.07334 0.974126 
442 1 5.08772 0.543692 5.42705 -1.63668 -0.847194 -1.18959 
443 1 2.29775 2.39895 2.70574 1.22383 2.28359 0.340039 
444 1 6.30841 4.88324 1.78777 1.87086 -1.60059 -1.02055 
445 1 7.1305 3.80392 2.96792 -1.09669 2.03308 0.00697063 
446 1 1.1569 7.74688 2.52485 0.179961 2.17156 1.88848 
447 1 4.24753 5.27323 4.03537 -2.94658 -0.648257 -0.526504 
448 1 7.54524 5.19465 7.88881 2.85195 1.15304 -1.10234 
449 1 3.70649 1.69235 1.39952 2.7576 -3.04136 -3.02909 
450 1 7.97625 3.88036 4.48666 -0.0642352 0.205558 0.500893 
451 1 1.80166 1.27054 0.11438 -1.86359 1.86915 -0.843616 
452 1 3.86135 6.42483 3.79804 -0.437146 0.952437 -0.117552 
453 1 3.78069 5.93341 0.815754 3.58768 0.445865 -1.91626 
454 1 6.25106 6.99884 3.75743 -0.782776 -0.173386 0.709281 
455 1 2.44605 7.6202 2.7303 1.06845 -1.76841 0.266925 
456 1 6.07119 8.22711 2.84565 1.75262 -1.93361 0.875298 
457 1 6.52198 5.31428 7.25972 2.1884 -1.07537 0.362721 
458 1 0.0994814 6.40475 4.51657 1.36928 -2.66669 0.336835 
459 1 3.52653 3.51485 5.07687 -0.307612 -0.362728 -2.34829 
460 1 0.00668963 1.09631 1.85983 -2.09337 1.29473 1.19345 
461 1 1.85523 0.527542 3.12319 0.605058 0.906184 -1.67138 
462 1 0.734034 2.68498 3.77023 -0.0413527 -2.8967 -1.5569 
463 1 5.47939 6.15436 6.7569 -0.498423 -0.608616 0.372574 
464 1 8.02598 2.70961 6.3662 -0.860536 -1.22943 0.106955 
465 1 2.11897 6.30365 0.905007 2.24954 0.260298 -1.32545 
466 1 1.24218 2.34971 2.75579 -1.50645 -1.95286 -1.1908 
467 1 2.82239 6.2042 3.40758 2.6431 2.38592 -1.08717 
468 1 4.34496 0.586299 0.266285 1.99946 0.578122 0.622002 
469 1 0.530761 7.90261 0.1966 0.674245 -1.29591 -1.4889 
470 1 2.18691 6.40975 8.33767 1.09648 -3.83181 0.210063 
471 1 0.768999 0.036113 1.79691 0.0824169 -1.71819 0.0183414 
472 1 1.73526 7.48495 5.32437 2.0522 -0.668201 2.1745 
473 1 2.33864 0.293636 3.94785 -1.09054 -1.23038 -2.78123 
474 1 3.27011 0.12067 0.180823 4.89831 -0.167118 -0.530579 
475 1 5.3103 0.39955 2.23122 -1.14007 0.955888 2.68006 
476 1 5.12763 1.49113 2.9392 -1.63928 0.199449 0.280967 
477 1 6.45077 1.19337 4.43372 -1.04256 -0.10165 1.87081 
478 1 3.07658 7.51954 8.18856 0.235173 -0.379331 2.93801 
479 1 8.14683 1.92653 3.35803 0.228232 2.78565 -1.33433 
480 1 7.62802 5.77878 0.450321 0.0952228 0.227118 -0.478359 
481 1 2.35528 8.28897 7.19767 0.774872 -0.274372 -1.0365 
482 1 8.35607 5.41337 7.19449 0.899083 3.67583 0.659195 
483 1 3.15985 6.67197 1.09349 0.793196 0.196188 -0.759742 
484 1 3.4217 3.94099 1.88537 -0.593168 -1.09319 2.14758 
485 1 8.34223 3.68679 1.59071 -0.0939732 1.44787 -0.916467 
486 1 2.13809 1.47588 3.01926 0.553347 -1.84512 0.357876 
487 1 6.15226 1.89501 3.28388 -0.629421 0.0911921 2.10326 
488 1 7.67423 3.64059 5.61951 -0.23579 -1.69657 1.80213 
489 1 0.0462059 2.94926 5.55802 -0.04061 2.14524 -1.15863 
490 1 5.0311 1.19812 0.615337 0.0726279 1.65201 -2.0467 
491 1 5.20431 1.82006 5.71529 0.882032 -0.0701765 -2.77676 
492 1 7.5026 4.35951 0.202884 -0.643664 2.09589 0.852456 
493 1 7.82489 6.88177 0.46075 0.0324208 -1.97742 -2.02547 
494 1 5.60544 2.29983 0.596282 1.19791 -0.844717 2.65353 
495 1 4.2075 0.292475 2.84405 -0.658173 4.25513 3.53761 
496 1 5.93872 0.520778 6.02527 -3.69443 0.603077 -0.216822 
497 1 1.85769 6.8235 2.83853 -1.63859 1.70428 0.116692 
498 1 4.73867 5.61209 7.88522 0.746518 0.711047 -2.33351 
499 1 4.47718 5.84759 6.64702 0.149256 0.138263 3.12791 
500 1 5.77841 7.37285 4.78453 -2.23642 -2.70246 -2.04393 
ITEM: TIMESTEP
1
ITEM: NUMBER OF ATOMS
500
ITEM: BOX BOUNDS pp pp pp
0 8.39798
0 8.39798
0 8.39798
ITEM: ATOMS id type x y z vx vy vz 
1 1 6.76021 4.76113 2.81766 1.86397 -1.07183 1.39505 
2 1 2.96851 4.39669 6.69612 1.89232 -1.90379 -1.23178 
3 1 3.08972 1.00631 0.80597 0.665128 -1.65432 -2.66204 
4 1 5.77711 0.782537 3.47406 -0.409171 0.731162 2.60274 
5 1 7.27764 2.21465 7.09906 -2.77842 1.68543 -0.429567 
6 1 2.86863 0.0799962 3.11037 0.474947 -0.918487 -1.85149 
7 1 5.12368 7.8989 5.83773 -0.737351 0.73721 -0.0497192 
8 1 4.15184 5.07103 5.42726 -2.57308 -0.934795 -0.078065 
9 1 2.22299 6.87428 3.92696 0.835341 -0.800573 0.0211897 
10 1 0.900438 1.52287 3.39775 -1.29897 -1.42504 -0.623628 
11 1 4.78303 3.99914 6.79803 -2.86962 1.83315 -0.797847 
12 1 5.17399 0.0424242 1.05295 -0.173627 -1.53366 -1.97722 
13 1 5.85506 5.09952 8.00425 2.08228 2.70289 2.03387 
14 1 8.28993 1.59235 4.25275 -0.564089 0.674607 1.9332 
15 1 6.12454 1.56714 5.31768 -1.75893 2.58085 -0.00914315 