ITEM: TIMESTEP
0
ITEM: NUMBER OF ATOMS
1688
ITEM: BOX BOUNDS pp pp pp
0 12.597
0 12.597
0 12.597
ITEM: ATOMS id type x y z vx vy vz 
1 1 5.372 7.52513 10.8851 0.684933 0.493484 -1.9487 
2 1 1.37915 12.5122 5.28203 2.73463 -0.255469 2.19006 
3 1 9.79599 4.8525 1.64745 -0.384112 2.68114 0.242443 
4 1 6.96369 4.41352 0.398127 -0.341418 0.857433 1.86276 
5 1 0.992326 3.24883 3.41418 1.46827 -0.024268 -1.11492 
6 1 7.93984 6.98147 8.17945 -1.77122 0.302996 -0.450635 
7 1 1.92597 11.206 0.196428 1.0105 2.94645 -1.25299 
8 1 7.79571 1.23383 6.02157 -0.322368 -0.503953 -0.840657 
9 1 4.30978 0.880119 3.27034 0.484854 0.225196 0.691439 
10 1 0.503412 7.10617 9.72127 -1.94499 0.390472 0.669698 
11 1 8.96751 8.82569 6.22255 0.0103636 1.16283 2.28221 
12 1 4.99999 2.24682 3.19905 -2.43519 0.997994 0.162944 
13 1 0.956876 9.90658 4.28052 2.07198 -2.00056 -0.706345 
14 1 10.5142 4.68866 8.00277 0.968105 -2.8905 0.651704 
15 1 5.68628 9.88456 3.13021 1.85114 -2.5367 -0.95146 
16 1 0.560894 8.8885 3.92774 -0.0594042 1.97242 -0.811222 
17 1 6.49499 9.49785 3.85174 -0.173602 -1.44378 0.993318 
18 1 7.16232 8.45533 2.27579 -1.278 -1.44332 1.29714 
19 1 2.33029 8.16856 11.5748 2.04106 -2.96699 0.127863 
20 1 6.5716 3.20451 11.4421 -0.418857 0.0997091 1.83211 
21 1 4.96934 7.14544 12.001 3.36232 -1.19118 0.0759258 
22 1 6.98209 3.02748 1.44661 -0.579797 -0.540136 0.310376 
23 1 7.55944 5.09181 1.6311 1.60449 1.36986 0.739032 
24 1 6.87065 9.53574 12.4021 0.0344421 0.241912 2.213 
25 1 9.94801 8.00849 6.08426 0.582682 1.46593 -0.609779 
26 1 2.1686 10.7728 3.11123 0.194061 1.54636 1.15318 
27 1 11.8594 10.755 0.703946 0.489227 0.488231 0.655104 
28 1 1.72416 12.5848 12.4297 0.695762 -0.0706493 -2.21405 
29 1 11.866 0.121921 0.372557 0.0539058 1.10175 -1.56047 
30 1 10.2581 2.02352 1.63679 0.888483 0.476886 -0.796188 
31 1 11.0509 3.42606 5.20398 -0.617523 -1.29393 0.497466 
32 1 2.87546 10.8832 8.58915 1.40303 -0.697651 -1.1135 
33 1 5.23942 8.02294 6.89667 0.533536 -3.02156 -0.242532 
34 1 12.1504 11.698 2.1769 2.32911 0.131873 0.373058 
35 1 9.48858 5.55078 11.0575 3.14881 -0.897511 -1.25142 
36 1 1.99967 12.3636 8.88666 -0.91489 -0.422394 2.85768 
37 1 10.3776 10.3748 5.02346 -0.130116 -1.39981 2.02329 
38 1 6.6953 5.35155 9.78328 -0.333528 -2.11977 1.6813 
39 1 10.1282 9.32812 0.534069 -3.37292 -1.63772 -0.660568 
40 1 1.71722 7.72993 5.21898 4.10175 -2.20737 0.420687 
41 1 0.272385 2.97578 2.31573 0.531077 0.885897 -0.0339144 
42 1 3.99988 12.378 8.83244 -0.173979 0.283361 -2.2335 
43 1 4.2458 8.54532 12.2113 0.929703 -2.95704 0.383768 
44 1 8.34219 2.28204 2.13537 2.18746 -2.39806 1.00923 
45 1 9.92735 2.92154 5.72709 0.172677 -1.18291 -1.25372 
46 1 2.07766 10.5162 1.81674 0.0992314 -1.45607 2.06964 
47 1 11.3445 1.11342 0.555276 -2.06135 2.2927 -1.07497 
48 1 6.41864 3.75624 3.1201 -0.167362 -0.0816062 -2.60977 
49 1 1.18182 9.61507 2.40268 0.500262 2.06687 -2.03552 
50 1 9.26315 3.7491 3.11599 0.109062 0.548889 -0.289137 
51 1 5.3647 10.5851 1.40852 -0.368132 0.720009 -1.53476 
52 1 6.47968 10.6689 9.91756 0.52587 -1.55585 0.924769 
53 1 7.14571 1.49307 1.19327 1.26296 -0.432219 2.25017 
54 1 9.28304 8.51201 12.4607 1.82741 2.1813 -1.49761 
55 1 5.96537 0.169314 1.43124 -1.79103 -0.84518 0.823347 
56 1 11.3124 10.557 7.85468 -3.92278 1.61379 2.15814 
57 1 9.06577 9.07173 4.53371 -1.10897 -0.549309 -2.32551 
58 1 4.1722 3.06291 11.1001 -0.797555 -0.316823 -1.86714 
59 1 7.70641 0.144036 0.981683 -1.2655 1.07671 1.89676 
60 1 11.359 12.1987 2.74615 0.641291 -0.473638 -0.756681 
61 1 11.3935 3.83842 8.59506 1.01632 0.12026 2.29324 
62 1 10.4628 6.3486 2.38403 -1.27151 -0.116852 -0.409376 
63 1 4.32538 0.805357 8.66843 -0.557036 1.17377 2.1836 
64 1 8.56009 3.57763 4.06771 0.246678 -1.21711 -2.86974 
65 1 9.21714 6.38825 10.4532 -1.2541 -0.382481 -0.770146 
66 1 3.9077 4.05069 3.90869 0.149572 -1.72188 0.906897 
67 1 9.37683 7.02126 5.31715 -2.20113 -0.0932366 0.333565 
68 1 7.40273 7.16396 0.728439 -0.579531 -0.0451757 -1.02219 
69 1 0.840746 1.459 9.29594 -0.916758 -0.685165 2.10355 
70 1 2.07116 1.73215 5.16929 2.21734 -0.30963 -0.0310515 
71 1 2.81485 5.30997 4.7687 0.811317 -0.523895 0.584773 
72 1 1.0576 4.77703 11.8681 -0.161308 0.0511505 0.737679 
73 1 2.39742 8.4549 8.25418 1.48513 0.847615 -0.278987 
74 1 2.3869 10.229 6.89292 1.53994 -1.95374 -0.503869 
75 1 0.948754 7.76007 12.0706 0.427571 1.70858 -1.55994 
76 1 0.835912 4.66771 8.32108 1.1246 -0.0616823 -0.877031 
77 1 6.16726 3.00901 6.29642 -1.02095 -0.636241 -1.85166 
78 1 7.39372 11.5761 12.1898 -1.17598 1.02639 0.0548864 
79 1 9.13314 2.12121 5.91891 2.54873 1.10204 0.521079 
80 1 6.044 5.44614 0.0883217 -0.363145 -1.26254 -0.989753 
81 1 8.2197 3.18892 11.9909 -0.369252 0.261051 -0.773156 
82 1 7.05893 3.47504 3.92225 -0.585804 -0.279374 1.36494 
83 1 9.80833 4.12613 5.35347 0.279922 0.340751 0.579118 
84 1 7.73609 0.722766 3.75772 1.63846 1.70667 1.7162 
85 1 6.56702 12.0503 7.22137 -2.16888 -1.2338 -0.473909 
86 1 0.76696 4.05484 10.8919 -0.150264 -0.256036 1.38504 
87 1 12.1355 0.57451 12.0673 -2.21276 -0.772295 -0.724187 
88 1 6.49819 9.17626 2.77509 -1.18551 -1.14063 -4.53631 
89 1 10.4557 11.3992 1.87667 1.14846 2.56354 -0.913512 
90 1 0.276471 5.12537 10.4551 -0.818141 0.91731 -2.9784 
91 1 4.81011 3.91971 10.7088 -0.595835 1.11032 -0.556744 
92 1 11.8216 1.38237 4.38164 0.124947 -1.97036 2.03415 
93 1 10.8942 5.68846 8.79998 -1.41727 -1.03154 -0.161481 
94 1 8.08492 6.22899 11.9786 3.65931 1.23593 -1.28973 
95 1 2.06838 1.23739 2.86459 -0.728803 1.65932 -0.565662 
96 1 0.619536 1.4812 2.54251 -0.559936 2.16614 -0.171206 
97 1 6.23932 5.30739 6.63849 -0.28292 -0.674704 -0.723274 
98 1 10.6009 3.92822 2.51995 -0.856464 0.954686 0.383826 
99 1 7.15728 8.47116 12.3077 0.418373 -0.3362 -0.732701 
100 1 4.90719 6.22029 11.7124 -1.062 1.28893 3.07184 
101 1 8.9843 4.54035 3.78056 1.07469 4.67912 0.847356 
102 1 5.18838 4.52361 1.65623 0.366578 -0.360983 0.981569 
103 1 5.92879 4.96509 10.5827 -2.04886 1.45678 3.15872 
104 1 11.6779 2.75145 4.35874 0.611546 -0.0435566 1.32923 
105 1 2.4436 3.28742 2.30712 -0.253067 -0.639802 -0.00782619 
106 1 6.59508 1.32806 0.16599 0.86984 0.737855 -0.829971 
107 1 4.21731 3.69302 2.84628 -0.148465 1.01506 -2.96203 
108 1 1.74554 8.80197 6.93161 1.61336 -0.570626 1.20458 
109 1 7.37841 8.60354 5.2506 -0.976523 1.62475 1.27305 
110 1 0.960103 6.5135 11.7177 0.340126 -0.500484 -0.105054 
111 1 7.57391 6.20651 4.14604 -0.462657 0.988412 2.53853 
112 1 2.65179 11.236 2.22213 -0.182406 -1.53694 0.37896 
113 1 3.97871 11.412 9.50419 0.363326 0.915423 3.04871 
114 1 11.0065 6.96664 3.71378 -0.346115 1.64806 -0.319036 
115 1 9.80111 7.23643 8.80039 0.82119 0.429156 0.42725 
116 1 8.7267 2.51869 4.40462 -1.76979 -1.34943 1.40326 
117 1 6.80586 5.69339 5.88 1.0883 -0.0768974 -1.02357 
118 1 8.73198 1.24069 0.00479521 1.15218 -2.26477 -0.06385 
119 1 12.4139 6.4361 0.963305 0.873054 -0.954803 2.82204 
120 1 6.68496 0.557564 9.7259 0.689391 0.535578 -2.62901 
121 1 10.3666 6.44355 4.40713 -1.18684 -0.55447 0.0721638 
122 1 12.4979 8.25135 1.51334 0.50995 -1.97449 2.1317 
123 1 1.01534 4.69 1.82142 -1.9185 -3.35942 -0.000869813 
124 1 3.62236 1.2019 11.8949 1.22754 1.12952 0.692374 
125 1 11.9077 7.40198 1.17964 -0.30185 2.57138 -1.02948 
126 1 1.13141 4.57539 0.238268 -1.71927 0.535404 0.0377727 
127 1 1.79795 0.897538 4.59777 1.5134 -0.0582323 -2.34371 
128 1 12.1037 10.4364 4.91881 -1.1702 -1.88689 2.55608 
129 1 10.0521 9.67514 10.3336 0.348501 -0.950415 -1.70621 
130 1 4.5551 5.78501 1.91683 1.90344 -1.6477 0.0410054 
131 1 0.492584 3.02587 5.58028 -1.93031 1.10253 -2.88053 
132 1 3.90677 4.94635 1.87888 -1.3869 1.09557 -0.376886 
133 1 3.76975 7.80605 12.4257 1.74418 -1.18547 -0.604779 
134 1 0.876531 9.62507 12.1132 -0.389336 -0.836635 2.13018 
135 1 5.56005 1.35547 12.4466 0.326798 -1.48464 0.460099 
136 1 6.74157 9.58183 7.58294 1.81896 -1.0069 -2.75696 
137 1 7.13511 2.40446 7.53199 -0.206541 1.47817 0.862179 
138 1 1.0134 10.718 9.13869 0.338183 1.43673 0.593448 
139 1 7.62638 5.21792 11.5877 -0.457116 0.908456 0.223965 
140 1 8.72569 5.44156 8.63264 -2.30445 0.306148 0.284097 
141 1 11.5773 9.92597 12.404 -0.535668 -0.641789 0.215829 
142 1 7.12558 0.863176 5.04346 0.223512 -1.73013 1.88385 
143 1 0.184804 1.61983 11.4656 0.78955 -2.83846 -0.294841 
144 1 4.78324 6.14346 7.22109 -2.98287 -2.09661 -0.488835 
145 1 10.5942 4.43281 6.78516 4.55362 1.51994 3.25502 
146 1 11.3329 8.74808 2.75115 -1.44849 -1.43687 0.406454 
147 1 6.37657 7.64011 10.4705 1.94459 -0.7702 -1.91627 
148 1 12.2652 3.54347 5.01952 -1.18524 2.57103 1.13077 
149 1 4.59575 0.610727 5.2907 0.522537 -1.10919 -0.128156 
150 1 8.51308 5.50874 12.4945 -1.30343 -0.0950162 1.11784 
151 1 1.23285 5.28839 10.0628 -1.21287 -0.517077 1.70328 
152 1 12.0128 11.1288 8.16592 -0.812072 1.50192 0.193995 
153 1 5.14668 8.32408 2.64513 1.47191 1.38501 0.474078 
154 1 12.5398 12.527 2.63594 3.21582 1.20731 -0.0654088 
155 1 11.8485 9.28409 3.61082 -1.41875 -1.33798 1.47174 
156 1 9.83775 10.806 10.8288 -1.01858 0.750301 0.997731 
157 1 2.25113 10.2224 0.848506 0.534472 0.928837 0.477736 
158 1 5.22871 0.504806 0.219829 -2.32305 0.692165 1.14148 
159 1 12.151 12.3018 9.38269 -3.03592 -1.19376 0.351142 
160 1 4.81126 4.47567 5.3853 0.852791 -0.597833 2.13239 
161 1 3.48574 6.84978 5.39405 0.464045 -0.464346 -1.18127 
162 1 1.76732 5.47396 6.73812 -2.79047 -1.77056 0.547577 
163 1 5.29502 9.18524 12.1494 1.07227 0.222087 1.56392 
164 1 6.76369 7.98713 0.747125 -0.0716958 -1.86883 1.44983 
165 1 4.11573 5.15428 4.18186 1.08628 2.42845 0.617082 
166 1 7.76922 7.88884 11.5011 -0.88941 1.86792 0.258074 
167 1 7.03898 10.1819 10.5265 -1.27249 -1.02669 -1.76693 
168 1 6.67585 6.68788 2.1257 1.43415 -2.40862 0.0675877 
169 1 8.57967 9.16469 8.25477 0.435627 -0.6502 -0.265765 
170 1 7.52235 9.74469 0.719483 2.02955 -0.276451 -1.65984 
171 1 1.66677 6.87102 4.509 -2.07567 -0.214445 0.0941653 
172 1 12.433 10.8067 11.4179 -0.194631 -0.259596 2.30853 
173 1 9.06103 8.04652 3.26572 2.67898 1.76796 -0.570643 
174 1 11.4905 2.16251 0.360996 0.151586 -0.919461 1.8635 
175 1 9.33835 9.52582 11.1907 -1.5427 -1.29406 -1.16243 
176 1 2.28965 5.68662 11.4117 0.306407 0.270234 -0.240378 
177 1 11.5825 9.17173 6.48975 0.367565 0.325039 1.67368 
178 1 11.4686 8.57114 4.51157 0.612037 -1.7956 1.54081 
179 1 10.1587 0.581643 10.1118 1.8784 -1.43295 -1.61171 
180 1 3.01932 11.9674 8.83747 -1.0911 -0.426312 0.0497825 
181 1 9.87075 8.82318 3.95423 1.35137 -0.539988 -0.595758 
182 1 4.78854 1.67619 4.94928 -1.5948 -0.704861 1.42226 
183 1 4.5571 12.195 6.72949 -1.20116 -2.36284 -0.0591598 
184 1 8.50613 0.0383199 0.181205 -1.72657 0.89229 2.27968 
185 1 3.14935 11.7101 10.4486 -1.07113 -0.347252 0.251546 
186 1 2.52134 8.9062 4.54038 -1.11681 0.479735 0.74356 
187 1 5.04544 1.36439 3.93981 -0.703608 -0.205032 -0.176356 
188 1 6.77901 11.9529 1.0164 -0.0325083 1.2005 1.75958 
189 1 6.56911 7.90761 1.75238 -0.797067 -2.00465 -0.540413 
190 1 5.03888 5.29427 12.0637 -0.201706 -3.10141 0.144753 
191 1 3.12075 1.67761 2.83513 1.17217 0.77584 0.111451 
192 1 3.30657 8.68211 6.77627 0.170708 -0.0758175 0.669515 
193 1 1.6895 7.65479 9.11852 2.67736 0.413212 -1.91755 
194 1 6.94835 4.6936 2.42976 0.321053 0.964569 -0.655855 
195 1 7.37806 7.27711 1.77056 -0.712742 -0.0173527 -0.591787 
196 1 6.43148 10.698 2.36907 -1.96263 -0.625042 0.452763 
197 1 6.11175 7.31638 8.34391 0.888272 -0.818109 -1.2193 
198 1 8.96289 8.936 10.2738 1.60956 -0.9621 -1.09481 
199 1 4.62027 1.53416 1.98512 0.89809 1.71662 -0.0854889 
200 1 11.0489 11.6786 0.190593 1.63056 1.5145 1.8008 
201 1 7.79192 0.531176 8.16666 -0.961226 0.0566955 1.2459 
202 1 6.18354 7.16636 2.86724 -1.69891 -0.353237 -0.857249 
203 1 8.53731 6.86338 4.78962 -0.717073 -0.187169 0.273395 
204 1 9.01998 11.3333 0.382445 0.418857 0.0568044 0.853677 
205 1 7.54468 6.37686 10.9983 2.35711 -1.61966 -4.49139 
206 1 8.99621 6.51085 1.8382 -0.891841 0.280813 -0.311526 
207 1 11.2732 9.61436 8.14182 0.386076 0.237668 0.624593 
208 1 1.28361 12.4063 11.5769 0.387313 0.859803 0.939933 
209 1 0.309846 9.52265 10.4636 0.227099 -1.11578 0.10163 
210 1 10.6534 1.50574 11.5602 -2.11751 0.702572 -1.66401 
211 1 11.2273 8.87803 0.349295 -1.42343 -1.54499 -2.23474 
212 1 10.1177 10.818 6.78075 0.548622 -1.27729 -1.17947 
213 1 2.68273 11.4276 11.8702 2.30702 0.248536 -1.98464 
214 1 4.63135 6.93908 9.72613 -1.37506 -1.32725 0.998904 
215 1 8.1651 12.1269 2.37651 -0.284945 -0.193537 -1.81689 
216 1 8.04577 11.3551 11.2744 1.09645 1.66093 -1.92985 
217 1 9.34966 10.844 1.54694 -0.197614 -1.11622 1.60606 
218 1 4.01468 0.0659679 10.3143 -0.972982 -0.875738 2.01787 
219 1 1.50882 8.61058 12.3263 1.79863 1.18825 -2.42878 
220 1 12.4966 9.02294 0.658947 0.896444 -0.494713 -1.07828 
221 1 6.78976 9.20434 10.2404 -1.51351 0.330039 0.369494 
222 1 1.21135 9.47012 10.9877 2.60609 0.102741 0.0583283 
223 1 7.77497 1.19215 0.457118 -1.65167 2.63963 2.08051 
224 1 1.99961 7.73235 12.4877 3.0742 -1.02026 -0.339777 
225 1 4.3864 0.472379 1.37381 2.10345 2.52262 0.264058 
226 1 10.7156 7.30502 2.69111 -0.666826 -2.15366 0.793962 
227 1 0.686494 3.92153 4.67516 2.0837 0.205528 -2.66825 
228 1 8.56421 5.1114 10.5835 1.13446 -1.75381 0.874258 
229 1 10.7491 9.36145 1.51504 2.39447 -2.00323 -0.661858 
230 1 10.6885 4.27432 1.11983 -0.847211 0.826392 0.152938 
231 1 1.5925 4.22845 5.12959 -1.49719 -1.35206 -0.443236 
232 1 8.85461 7.72723 0.374698 0.0811972 0.846762 1.52648 
233 1 3.09012 0.34804 11.0655 -1.13901 1.83664 -1.05242 
234 1 11.0918 3.19587 1.48194 -0.308632 0.299365 0.85107 
235 1 3.19455 9.72904 11.7707 -1.09227 -0.23756 0.535131 
236 1 2.1775 2.21354 2.76943 -0.436989 2.79463 -2.15851 
237 1 6.88357 1.51076 5.81107 -1.21861 -0.412967 -2.33509 
238 1 7.95697 5.49651 0.873129 -0.254581 -1.91201 0.146822 
239 1 4.90657 11.0012 11.2504 1.49828 -0.222139 -1.1754 
240 1 2.47963 0.541242 3.67157 -0.900325 -2.37472 0.886861 
241 1 9.83266 4.6446 0.698405 3.25602 0.653465 -0.288723 
242 1 6.80095 12.1971 3.92154 -1.52695 0.144483 2.918 
243 1 6.82079 12.5538 4.77969 0.908415 0.358703 -1.92089 
244 1 11.8258 5.15093 3.6717 0.125344 -0.692789 0.245434 
245 1 9.06233 7.344 1.21845 -0.519041 0.0470696 -0.0181909 
246 1 3.03361 8.64467 12.3256 1.01364 0.728054 0.805272 
247 1 10.2788 11.7873 6.81013 -0.549693 -0.632801 1.11711 
248 1 4.5077 11.8502 12.5221 1.76222 -1.83681 -0.620736 
249 1 10.045 7.97333 7.34423 1.29251 -0.669279 1.54352 
250 1 7.61899 10.2205 9.52475 2.50597 0.201582 0.75404 
251 1 8.40194 1.57585 3.88394 -2.0639 2.28263 -0.00879435 
252 1 3.5215 5.88579 4.40596 2.8593 0.145816 1.22926 
253 1 10.0036 6.31035 3.4504 -1.39839 0.203733 0.782604 
254 1 5.62146 7.6221 4.9116 -1.35502 0.318537 0.0460246 
255 1 10.489 5.5261 3.94617 -0.225359 -0.432152 1.61092 
256 1 9.85628 6.77841 10.9778 1.60944 -0.784446 0.737348 
257 1 2.93977 2.50347 1.8716 0.330746 1.69432 0.147791 
258 1 2.70157 5.7699 2.89183 0.754373 1.50173 -2.93 
259 1 0.785604 4.57203 9.26067 -0.192357 -0.516667 -2.96519 
260 1 1.586 6.1197 1.23031 -1.32933 -0.964102 -1.17368 
261 1 12.2342 5.88381 2.159 0.978512 1.4016 -0.25399 
262 1 1.23185 5.46939 3.83224 0.0212493 0.913343 0.266137 
263 1 5.58702 3.01197 0.415035 1.6745 -2.86573 1.45684 
264 1 5.86371 8.73733 1.97859 -0.873813 0.484172 -1.22853 
265 1 12.5792 3.31058 10.5713 3.86065 0.0589061 -0.127689 
266 1 2.63418 1.55347 1.54575 0.453853 -0.117183 -0.543858 
267 1 6.4052 2.17326 6.78098 0.482801 0.856228 -2.43422 
268 1 1.41764 9.05826 7.75988 -0.684779 0.859905 -0.38525 
269 1 6.71465 10.9155 1.31079 -0.171667 1.84031 0.559825 
270 1 1.14117 10.3727 10.089 -0.865709 1.48283 1.10133 
271 1 8.94064 3.54556 5.74639 0.185105 1.38229 0.191779 
272 1 7.88599 9.15313 1.51298 -1.12663 -1.89123 -1.51683 
273 1 3.99672 1.00717 10.933 -2.7136 -2.93456 -3.8619 
274 1 9.59979 1.01937 7.53182 -1.27721 0.847167 1.37154 
275 1 1.83062 1.91951 9.47404 -0.117042 0.480526 1.66506 
276 1 4.11527 2.63729 0.8025 -1.43512 0.844127 0.329921 
277 1 1.79717 0.701347 6.0326 0.627982 -1.03838 0.942927 
278 1 11.628 7.63864 2.24716 1.96369 -1.22131 -1.51103 
279 1 1.53136 1.24799 2.12864 0.605971 0.00598935 -0.58293 
280 1 1.59801 2.11495 0.721704 -1.65275 -1.0727 0.658392 
281 1 5.28525 11.2305 10.2334 0.46051 -0.0128809 0.0602217 
282 1 9.31597 0.189774 7.04436 0.30422 -0.197123 1.78696 
283 1 8.43285 11.0302 1.37251 0.365099 0.36314 1.29963 
284 1 9.39493 6.43876 12.0088 0.0168612 0.921393 -0.59968 
285 1 8.70941 2.41984 0.171101 1.04605 2.30663 -0.994928 
286 1 5.92538 12.3906 0.390759 2.13759 2.35861 -0.953044 
287 1 2.9443 2.33505 12.4191 0.524795 0.247704 -0.181503 
288 1 3.63618 4.3764 0.658962 1.64511 1.58987 -0.264751 
289 1 7.10706 6.8999 12.5036 -0.189488 2.11971 -0.863474 
290 1 2.91184 8.9414 3.40527 -1.19179 -1.44169 1.17528 
291 1 4.39529 11.6764 10.4351 1.63955 0.667712 2.43941 
292 1 2.93543 11.1321 9.56607 0.347305 -0.835717 0.637807 
293 1 4.43362 9.34889 0.58356 -1.73391 -2.47639 1.20945 
294 1 4.45691 12.0422 1.80703 2.56446 -2.11083 0.430031 
295 1 5.00469 2.05565 1.02724 -3.02578 -3.36737 -0.342602 
296 1 5.69936 2.50093 8.19042 0.803385 1.30629 0.339188 
297 1 3.32864 3.10605 2.77504 0.0947208 1.79661 -0.182622 
298 1 5.49727 6.52702 1.46254 1.94447 -3.09412 -0.0729568 
299 1 2.45325 2.44373 4.5855 -0.798925 1.53427 -1.23609 
300 1 10.4466 2.63882 2.46312 -0.371319 0.0577713 -0.294575 
301 1 7.94408 4.44367 4.1784 1.56672 0.323988 2.1201 
302 1 0.736484 9.21532 1.55326 0.285038 0.387339 -0.497615 
303 1 4.97531 5.78939 1.01984 0.0865495 -0.5973 1.11707 
304 1 6.69292 1.65679 2.95392 1.3102 0.176753 0.469972 
305 1 1.03419 3.22083 11.3459 0.755627 -0.485579 -0.241766 
306 1 0.360223 0.553831 4.69633 -1.67815 -1.03237 -0.0799736 
307 1 9.66039 5.01902 12.0805 -0.646026 0.763276 0.899985 
308 1 8.77838 7.33791 8.93245 -2.91938 -0.875543 0.0975542 
309 1 10.5915 5.28445 5.01253 -2.51684 1.8274 2.33239 
310 1 11.3008 11.4457 1.34457 1.68283 -1.94104 0.193875 
311 1 6.88948 4.39687 1.42776 0.58872 1.25631 -0.367395 
312 1 8.6176 4.8633 1.36707 -0.672035 0.582271 0.854793 
313 1 5.68948 2.48008 9.16819 -1.12329 -0.411802 3.25466 
314 1 2.83457 1.21522 4.61878 0.469283 -2.04215 -2.27019 
315 1 10.5111 6.5246 10.1372 2.02335 -0.917768 -1.97175 
316 1 5.56117 3.03037 12.0878 -1.06976 -0.796924 0.498634 
317 1 10.1002 1.64985 5.79971 0.306354 -0.951433 0.0758325 
318 1 0.179951 9.2843 2.88369 -1.29222 -1.86701 -1.33413 
319 1 0.290461 10.1298 2.03532 -0.710221 0.552485 1.8761 
320 1 5.85918 4.64748 8.61337 -0.887217 -0.690241 -1.63107 
321 1 5.27398 4.60302 11.3243 -0.958636 0.0506519 0.0870837 
322 1 10.2937 6.42356 9.14793 2.45252 0.601954 -0.66533 
323 1 4.23092 8.5154 2.54929 0.894464 0.143237 1.42205 
324 1 3.55635 3.87877 11.2177 -0.602112 -2.2905 -1.26503 
325 1 2.8937 5.39891 6.78737 -1.09838 -0.321942 -1.36796 
326 1 1.47053 1.18365 8.28252 -0.466405 1.78495 -1.12282 
327 1 2.61629 5.93427 1.1444 -0.0624325 -0.797197 -0.930388 
328 1 9.3348 0.798882 3.73235 0.432923 0.191719 1.81863 
329 1 1.57008 7.48841 11.2923 -1.10883 -0.296796 1.40982 
330 1 12.0024 3.48952 0.461795 -1.60323 -1.2131 -2.1512 
331 1 5.70734 8.11844 1.25655 -0.848701 -2.0586 1.05125 
332 1 1.82967 8.43259 2.16889 0.105506 1.47675 0.979208 
333 1 6.71254 7.84253 5.18347 -0.193924 3.89341 -0.0154626 
334 1 5.30896 8.16968 11.5914 0.41652 1.01703 -2.11526 
335 1 8.63577 9.90811 3.2193 -1.16072 0.473022 -0.76242 
336 1 1.28636 10.0569 5.49156 -1.8859 -1.2079 -1.01153 
337 1 3.40952 4.11013 12.0735 -0.609149 0.780435 2.16772 
338 1 12.0341 8.35217 3.57692 -1.60453 3.63989 0.640619 
339 1 0.911279 10.6083 12.1489 1.36797 0.331541 0.848411 
340 1 9.07252 6.01619 4.4594 2.8917 2.11552 -0.694063 
341 1 4.93419 12.1003 3.58505 1.4216 0.618313 -1.14793 
342 1 2.34945 5.11541 5.77704 0.675752 0.192099 -0.321161 
343 1 12.1874 10.4522 2.85314 0.378339 0.758739 0.84137 
344 1 11.1141 7.45592 0.386903 0.0692943 -0.968216 3.10962 
345 1 10.0666 3.14914 3.43389 3.87837 -2.37443 -0.759221 
346 1 1.93502 2.96313 12.224 -0.452235 0.119494 2.20362 
347 1 7.88985 4.09984 0.873597 2.02573 0.935465 1.48828 
348 1 4.0415 5.0918 0.0705422 -0.77122 -4.07807 0.69919 
349 1 5.7906 9.86887 4.21682 -0.0849457 0.134891 -1.84551 
350 1 1.51573 1.13243 11.0769 -0.220116 -0.531482 -1.07905 
351 1 3.43462 8.74148 0.6876 -1.03266 -1.0313 -1.12122 
352 1 8.89953 5.88708 6.63155 0.503099 1.91344 -0.728433 
353 1 4.48258 4.77352 1.01984 -0.65532 2.20718 -0.0355907 
354 1 11.0048 4.47458 10.4327 0.844312 -1.73713 0.93255 
355 1 9.60091 3.77401 11.3794 -0.875546 -0.117292 0.341239 
356 1 8.56296 11.4259 5.85105 -1.85165 -4.73336 -2.64813 
357 1 5.40149 4.73559 9.47484 -1.81212 -0.564621 -1.69431 
358 1 0.115906 2.75917 3.88622 0.163507 0.273827 1.37406 
359 1 8.0562 8.1384 1.50289 3.13858 -1.90224 1.00399 
360 1 9.08495 9.03654 0.956076 3.29557 -0.932404 -1.26532 
361 1 3.59105 12.1976 11.3961 0.12952 0.640972 -0.654745 
362 1 1.39284 7.2868 0.790427 0.592085 0.450232 0.349015 
363 1 7.89582 8.29444 6.27615 -0.105878 0.207145 -1.44334 
364 1 1.39012 0.20429 10.6912 0.670088 0.779347 2.06633 
365 1 6.8228 5.11148 4.81745 1.37317 -0.489152 0.158336 
366 1 8.54058 1.39623 1.27416 -0.83106 -2.35481 0.137394 
367 1 9.48169 9.53801 2.23928 -0.623105 -0.189152 2.52578 
368 1 5.31136 12.306 11.9787 -0.78863 -1.07104 0.455996 
369 1 11.917 1.42689 2.44875 -1.09131 1.18572 0.158092 
370 1 11.4074 11.8853 8.37232 1.30376 0.0929601 -0.754331 
371 1 2.32351 8.17977 0.836185 -0.149714 -0.0841319 -0.455553 
372 1 9.61022 3.89676 2.1446 1.68449 -3.01481 -0.745491 
373 1 1.44782 10.1321 0.323258 0.589125 1.74169 -1.00665 
374 1 7.18669 10.7064 0.354209 1.11039 -1.11429 -1.47685 
375 1 3.25618 9.68247 0.403191 -0.129523 1.83304 0.0666152 
376 1 4.83335 12.3246 0.879984 1.03897 0.241845 -1.38606 
377 1 2.84941 10.4618 11.3145 -2.62757 -0.778689 -0.846143 
378 1 1.59087 7.31885 3.51274 -0.822669 -0.200051 0.249999 
379 1 12.1705 6.09644 6.72035 1.38905 0.0710118 0.79412 
380 1 9.10783 11.031 6.9163 4.22259 -1.22932 -0.0720355 
381 1 4.02076 5.87639 1.03118 -0.68181 0.34395 -1.24673 
382 1 4.61239 8.48953 4.11398 -2.65454 0.0437028 1.00928 
383 1 4.63673 10.4513 10.0619 -1.15134 1.76431 0.0295559 
384 1 3.88739 7.83333 3.14261 -1.48951 0.0194259 -0.217683 
385 1 7.01185 12.5825 6.34781 -0.527953 -0.54893 0.0505108 
386 1 3.14152 11.5281 4.83818 -0.824854 -0.81607 0.0125357 
387 1 3.24841 9.66022 4.31447 -2.38238 -0.830044 -1.43668 
388 1 10.1346 8.57223 1.62438 -1.60934 1.46891 -0.144731 
389 1 12.1571 9.27228 1.67461 0.4903 0.795835 -0.187583 
390 1 8.4997 3.48362 2.23302 -0.667233 0.861747 -0.895767 
391 1 6.0781 4.94011 4.04351 0.923974 -0.229342 -0.723356 
392 1 12.5552 0.0404041 3.71573 1.92819 -1.54987 -1.16036 
393 1 11.0924 6.04303 3.4791 -1.92922 -2.25187 -0.253449 
394 1 6.01599 8.50494 10.2824 -0.555201 1.38219 -0.113706 
395 1 0.068332 10.1941 3.78497 0.887935 1.69625 -0.433372 
396 1 1.15779 11.1186 0.803698 -0.260429 -3.77736 0.805534 
397 1 0.266539 11.4768 7.57895 -1.22847 0.79425 0.892363 
398 1 1.24434 11.6215 10.4603 0.156172 -0.509591 1.32126 
399 1 0.415743 0.650649 2.00198 -2.16579 -1.78346 -0.465089 
400 1 10.9275 5.47293 2.61982 1.71193 1.76312 -1.82504 
401 1 1.32688 8.05505 1.43225 2.27101 1.75301 -0.0976306 
402 1 5.52302 12.0491 4.61647 -1.68135 -0.395384 -0.566936 
403 1 0.166254 10.0119 8.56065 -1.94312 0.783638 -0.466153 
404 1 1.19861 6.04343 10.8753 0.997965 -2.72317 0.077852 
405 1 4.50473 3.89369 1.91839 0.118788 2.59422 0.333336 
406 1 12.5818 1.51262 8.92701 0.233861 1.17031 -0.187977 
407 1 0.925353 12.0868 3.38596 0.46038 0.193562 2.48432 
408 1 10.665 10.2772 0.476595 -0.548652 -0.802808 0.358108 
409 1 6.1062 4.35807 5.04863 2.58882 0.100443 1.17538 
410 1 11.7682 0.349409 4.64675 0.26686 -2.92354 0.889588 
411 1 3.77877 10.452 2.46556 -1.22983 -0.471669 0.652011 
412 1 6.24894 10.1032 5.12397 -0.786801 2.44627 0.409666 
413 1 4.04705 8.33631 6.01153 0.831348 -0.775223 0.177493 
414 1 5.63015 5.93643 2.79688 0.654274 -1.09549 -0.998566 
415 1 3.1668 8.97499 8.99086 -2.65657 2.06168 1.37272 
416 1 4.85522 0.766051 7.74503 1.36414 -0.877002 -0.017047 
417 1 6.49038 11.1802 5.30204 0.724213 -0.512983 -0.395639 
418 1 9.76577 5.6098 7.87028 1.97577 -0.0202922 -0.47504 
419 1 10.2786 11.8039 5.82852 -1.0629 -1.27819 2.74632 
420 1 9.09517 12.1041 8.56204 0.0042984 -0.992533 1.27841 
421 1 2.62466 12.1581 12.5644 -0.573593 1.04229 -1.82807 
422 1 3.79697 7.80396 7.33037 -1.76742 0.0246384 0.989059 
423 1 1.24032 7.48046 2.43385 -0.24811 0.844453 0.474659 
424 1 9.13936 8.41475 1.77838 -0.605445 -3.14861 -0.274233 
425 1 7.25145 7.62889 8.10824 -1.50445 -0.271503 0.0391945 
426 1 8.02508 2.16638 1.00225 1.2346 1.36787 1.193 
427 1 12.1733 11.6337 3.34074 2.22986 1.29797 -0.455829 
428 1 2.3854 4.51232 7.18451 -1.54328 -0.781488 0.313913 
429 1 8.41642 11.4887 4.2108 0.546576 -0.793359 -0.417053 
430 1 11.5866 3.9109 1.99818 -1.1858 -0.86303 1.43258 
431 1 0.60601 11.1253 1.64464 -1.97422 0.278847 0.518886 
432 1 10.4162 12.2506 8.85132 -3.46509 2.14065 -0.682101 
433 1 6.15287 8.67971 12.2238 0.690973 -0.555853 -1.12445 
434 1 8.64401 9.35906 0.0715029 -0.118179 -0.110154 0.830852 
435 1 4.43099 7.4812 0.415551 -1.70879 0.844994 -0.348136 
436 1 2.58159 1.14291 9.36978 0.770284 -1.17995 0.347666 
437 1 5.68363 11.0515 7.3813 -0.648004 -0.52279 -1.86859 
438 1 8.82141 10.9148 12.0477 -1.63451 1.7574 0.465297 
439 1 11.8939 7.34484 3.09427 1.07413 -0.00918576 -1.10253 
440 1 5.0764 10.2498 2.41373 -0.338695 -1.91542 0.4153 
441 1 2.07376 5.44731 1.88115 -2.09777 0.593249 1.07894 
442 1 5.98175 0.29637 4.28535 1.18855 -0.481705 -0.691463 
443 1 11.4603 1.71864 7.33981 3.94667 -3.0356 -0.290156 
444 1 11.2563 9.40518 10.0205 3.58128 -1.25853 1.25475 
445 1 3.49821 10.5634 12.0777 0.651861 -1.73281 0.315138 
446 1 11.818 10.8043 1.95588 1.36293 1.68263 -0.280606 
447 1 6.1658 3.57828 1.93259 1.32299 0.755462 -1.10137 
448 1 5.79326 11.2634 2.81633 -2.06549 0.437221 -3.19833 
449 1 8.75953 0.0189613 3.23341 -1.30839 1.97036 0.516193 
450 1 7.85595 2.3205 2.89447 -2.56479 -0.165447 -0.657726 
451 1 12.3533 11.8838 4.4181 1.50522 0.416686 -1.63096 
452 1 11.3242 11.0953 2.82398 -3.18938 -0.691613 -1.74138 
453 1 1.3413 10.9395 3.6766 -0.85683 1.23161 -2.09399 
454 1 11.5379 6.27389 2.60077 -2.86065 2.74993 0.827822 
455 1 12.2173 12.1349 11.2027 -0.00935278 -1.23164 -1.91471 
456 1 0.435005 0.529608 8.66864 -2.38377 -0.860122 2.26886 
457 1 4.93084 9.47538 7.85464 1.99243 0.630712 -0.249867 
458 1 0.0598381 5.0372 1.73756 0.742839 -0.44206 -1.34529 
459 1 5.0678 11.8816 9.04133 -1.11299 -1.16917 -1.06381 
460 1 5.77761 4.79254 0.880707 -0.155907 2.0878 0.276814 
461 1 10.4191 0.452443 4.08049 1.56396 -0.321167 -0.507204 
462 1 5.95823 11.4999 3.93167 1.85765 -1.7791 1.93485 
463 1 2.24121 7.40194 8.22307 3.24224 -0.367715 2.51944 
464 1 9.66303 0.0556817 9.26284 -0.868766 0.701417 0.253553 
465 1 10.9507 10.5483 1.39652 -1.94261 -3.26221 -0.909487 
466 1 12.4965 0.238219 7.36205 2.13151 1.30844 0.893479 
467 1 6.02075 9.82297 2.12099 2.02174 1.10009 -1.25697 
468 1 9.54749 1.39496 1.0053 -0.495845 -0.70302 -1.07884 
469 1 7.7453 11.9379 1.45428 -0.286522 -0.0492922 -0.0555066 
470 1 7.6804 8.24215 9.19089 0.346652 -1.42566 0.357984 
471 1 0.56098 2.409 9.36459 0.0176709 1.62033 0.951776 
472 1 8.2175 4.3554 11.2052 -0.627537 1.97501 -0.689409 
473 1 11.0945 12.4325 1.7197 -0.103993 0.293161 -0.533049 
474 1 9.50365 9.58565 12.2976 0.72811 -0.278542 2.15 
475 1 10.3009 11.3962 0.89119 -1.26871 -1.53537 0.969112 
476 1 9.64545 12.4706 5.39868 -0.585004 1.70161 -0.884136 
477 1 11.0518 0.861774 4.97502 1.18224 -1.26657 1.14748 
478 1 7.63525 10.813 3.00878 1.27198 2.34609 -0.485989 
479 1 9.13704 1.27636 11.468 -0.224769 -0.866201 1.40375 
480 1 10.8756 8.09852 12.3106 -0.886384 2.38482 0.657194 
481 1 9.33129 3.01899 12.1571 -0.619344 -2.52059 -0.180429 
482 1 4.53115 6.24682 0.18799 -1.00154 1.65941 -0.184029 
483 1 3.77542 1.98361 2.10695 -0.375074 1.39747 1.49561 
484 1 11.7747 7.54147 4.33582 0.0699337 -1.31171 -1.59714 
485 1 2.80286 9.99561 3.51747 0.0967764 1.3897 1.59272 
486 1 11.2282 12.0387 4.67071 0.0120439 -1.40874 -1.51985 
487 1 0.547891 11.7156 11.2652 1.21657 1.8082 2.67937 
488 1 0.115035 3.05345 6.64918 -0.237628 -0.146062 0.601147 
489 1 5.35468 6.01069 10.7811 -2.69188 -1.56463 2.04092 
490 1 4.85103 4.6988 2.6895 -0.129082 -1.82553 2.02197 
491 1 7.3111 11.9539 5.54789 -2.06096 1.82687 2.01318 
492 1 1.07218 5.0217 7.31504 -2.43851 2.42179 -0.775796 
493 1 3.4235 6.17256 8.65546 -0.317149 2.31034 1.19725 
494 1 2.07091 4.96704 0.791131 -0.393427 -0.452081 0.715169 
495 1 10.2232 1.37304 3.19726 1.6809 0.545626 -1.51547 
496 1 5.45179 0.768953 3.25799 0.841428 -0.357848 1.14463 
497 1 5.88467 8.61877 3.83823 -0.483315 -1.35077 -1.87296 
498 1 5.6499 4.88946 5.79278 1.30428 -2.38872 -0.990621 
499 1 6.65962 1.5285 9.3719 -0.506991 -1.17295 0.468976 
500 1 7.20126 1.36344 10.2416 0.297142 -0.200452 -1.96258 
501 1 7.43135 0.0616045 7.18744 1.52824 1.18983 -1.94326 
502 1 11.2979 5.44393 12.1201 -1.82641 0.127487 -4.25443 
503 1 3.91728 1.98041 3.36806 1.92808 1.57399 0.196041 
504 1 5.52439 3.13512 3.85499 0.00798436 3.22205 0.627995 
505 1 3.24534 9.73304 9.7748 -0.238838 0.934909 -0.617352 
506 1 7.15341 2.60875 5.95931 0.956399 0.902382 0.452829 
507 1 9.80392 1.13581 12.5566 -0.948363 1.20174 0.787208 
508 1 6.70748 0.412184 0.871626 2.25746 -2.02746 -0.561516 
509 1 8.31219 11.5403 3.1032 1.24206 -1.08248 -0.32628 
510 1 6.48658 3.24807 5.12162 0.84218 0.391022 0.0084457 
511 1 0.966784 10.0795 3.20753 -1.74631 -2.25759 1.06405 
512 1 6.14716 8.16372 7.32198 1.38396 1.8652 0.291713 
513 1 2.18114 6.44459 3.59361 -2.11408 0.240229 -0.992241 
514 1 3.63573 11.7709 6.76576 -0.694874 -1.44413 0.192613 
515 1 11.2149 5.4036 6.92779 -0.074037 -1.06518 -0.170257 
516 1 0.0973082 2.57456 11.9941 -1.15803 -0.0288098 0.836399 
517 1 11.8942 8.13531 0.295385 0.469344 -0.194891 -1.91008 