LAMMPS (22 Mar 2013)
variable	x index 1
variable	y index 1
variable	z index 1

variable	xx equal 7.5*$x
variable	xx equal 7.5*1
variable	yy equal 7.5*$y
variable	yy equal 7.5*1
variable	zz equal 7.5*$z
variable	zz equal 7.5*1

units		lj
atom_style	atomic

lattice		fcc 0.8442
Lattice spacing in x,y,z = 1.6796 1.6796 1.6796
region		box block 0 ${xx} 0 ${yy} 0 ${zz}
region		box block 0 7.5 0 ${yy} 0 ${zz}
region		box block 0 7.5 0 7.5 0 ${zz}
region		box block 0 7.5 0 7.5 0 7.5
create_box	1 box
Created orthogonal box = (0 0 0) to (12.597 12.597 12.597)
  1 by 1 by 1 MPI processor grid
create_atoms	1 box
Created 1688 atoms
mass		1 1.0

velocity	all create 2.50 911108 loop geom

pair_style	lj/cut 2.5
pair_coeff	1 1 1.0 1.0 2.5

neighbor	0.3 bin
neigh_modify	delay 0 every 20 check no

fix		1 all nvt temp 2.00 2.00 0.10

run 		10000
Memory usage per processor = 1.89116 Mbytes
Step Temp E_pair E_mol TotEng Press 
       0          2.5   -2.0705398            0    1.6772386    14.251891 
   10000    1.9439756   -4.3785818            0   -1.4643459    7.7786517 
Loop time of 14.4765 on 1 procs for 10000 steps with 1688 atoms

Pair  time (%) = 12.0262 (83.0738)
Neigh time (%) = 1.62235 (11.2067)
Comm  time (%) = 0.345463 (2.38636)
Outpt time (%) = 5.6982e-05 (0.000393617)
Other time (%) = 0.482461 (3.33271)

Nlocal:    1688 ave 1688 max 1688 min
Histogram: 1 0 0 0 0 0 0 0 0 0
Nghost:    3349 ave 3349 max 3349 min
Histogram: 1 0 0 0 0 0 0 0 0 0
Neighs:    64254 ave 64254 max 64254 min
Histogram: 1 0 0 0 0 0 0 0 0 0

Total # of neighbors = 64254
Ave neighs/atom = 38.0652
Neighbor list builds = 500
Dangerous builds = 0
reset_timestep	0

thermo		10
thermo_style	custom step temp ke pe etotal
dump		1 all custom 1 dump.lj id type x y z vx vy vz
dump_modify	1 sort id

run		20000
Memory usage per processor = 2.26913 Mbytes
Step Temp KinEng PotEng TotEng 
       0    1.9439756    2.9142359   -4.3785818   -1.4643459 
      10    1.9837336    2.9738377   -4.4290324   -1.4551947 
      20    1.9811203      2.96992   -4.4073359   -1.4374159 
      30    1.9877245    2.9798203   -4.3894121   -1.4095917 
      40    2.0681578    3.1003989   -4.4895252   -1.3891263 
      50    1.9945856    2.9901059   -4.4033864   -1.4132805 
      60    1.9676435    2.9497167   -4.4051729   -1.4554561 
      70    1.9823565    2.9717732   -4.4800623    -1.508289 
      80    1.9105244    2.8640889   -4.4578064   -1.5937175 
      90    1.9036121    2.8537265   -4.4802126   -1.6264861 
     100    1.9739916    2.9592333   -4.5450724   -1.5858391 
     110    2.0265966     3.038094   -4.5531429   -1.5150489 
     120    1.9951105    2.9908929   -4.4606257   -1.4697328 
     130    1.9895251    2.9825196   -4.4296584   -1.4471387 
     140    2.0010358    2.9997755   -4.4287203   -1.4289448 
     150    2.0316762    3.0457089    -4.466439     -1.42073 
     160    1.9891605    2.9819732   -4.4140675   -1.4320943 
     170    2.0126581    3.0171986   -4.4604619   -1.4432633 
     180    1.9918482    2.9860023   -4.4473719   -1.4613696 
     190    2.0040782    3.0043365     -4.49223   -1.4878935 
     200    1.9398928    2.9081153   -4.4531373    -1.545022 
     210    1.8972619     2.844207    -4.433665   -1.5894581 
     220    1.9573086    2.9342235   -4.5132108   -1.5789872 
     230    1.9818017    2.9709415   -4.4851202   -1.5141787 
     240    2.0214542    3.0303849   -4.4664759    -1.436091 
     250    2.0240138    3.0342221    -4.437466   -1.4032439 
     260    2.0056142    3.0066391   -4.4029374   -1.3962983 
     270    2.0163758     3.022772   -4.4164281   -1.3936561 
     280    2.0244985    3.0349487   -4.4403463   -1.4053976 
     290    1.9863675    2.9777861   -4.4179586   -1.4401725 
     300    1.9864271    2.9778754   -4.4706383   -1.4927628 
     310    1.9253011    2.8862409   -4.4606255   -1.5743846 
     320    1.9216536    2.8807728   -4.4997461   -1.6189733 
     330    1.9451362    2.9159759   -4.5234987   -1.6075228 
     340    1.9449979    2.9157685   -4.4449638   -1.5291953 
     350    2.0446589    3.0651715   -4.4931124   -1.4279409 
     360    2.0296812    3.0427181   -4.4582819   -1.4155638 
     370    2.0325158    3.0469676   -4.4734121   -1.4264445 
     380    1.9817252    2.9708268   -4.4179616   -1.4471347 
     390    1.9945962    2.9901218   -4.4568534   -1.4667316 
     400    1.9560187    2.9322899   -4.4229173   -1.4906274 
     410    2.0001498    2.9984473   -4.5012838   -1.5028365 
     420    1.9987692    2.9963777   -4.5060912   -1.5097135 
     430    2.0005158     2.998996   -4.5180292   -1.5190332 
     440    1.9515294      2.92556   -4.4557543   -1.5301943 
     450    1.9795912    2.9676278   -4.4761176   -1.5084899 
     460    2.0509315    3.0745748   -4.5244952   -1.4499204 
     470    2.0001166    2.9983975   -4.3953775     -1.39698 
     480    2.0332821    3.0481163   -4.4050039   -1.3568876 
     490    2.0519776    3.0761429    -4.415851   -1.3397081 
     500    2.0185634    3.0260514   -4.3788392   -1.3527878 
     510    2.0626557    3.0921507   -4.5073277    -1.415177 
     520    1.9219722    2.8812504   -4.4017403   -1.5204898 
     530    1.9536563    2.9287483   -4.4695933    -1.540845 
     540    2.0111699    3.0149677   -4.5482368   -1.5332691 
     550    1.9380456    2.9053461   -4.4257517   -1.5204056 
     560      1.98943    2.9823771   -4.4537401   -1.4713629 
     570    2.0156466    3.0216787   -4.4364669   -1.4147882 
     580    2.0286663    3.0411967   -4.4268724   -1.3856757 
     590    1.9917619    2.9858729   -4.3601614   -1.3742885 
     600    2.0477533    3.0698103   -4.4365896   -1.3667793 
     610    2.0064442    3.0078834   -4.3915053   -1.3836219 
     620    1.9988491    2.9964975   -4.4071966   -1.4106992 
     630    2.0213622    3.0302471      -4.4878   -1.4575529 
     640    1.9592639    2.9371548   -4.4811092   -1.5439543 
     650    1.8848385    2.8255829   -4.4435418   -1.6179589 
     660    1.9264939    2.8880289   -4.5092155   -1.6211866 
     670    1.9324755     2.896996   -4.4907522   -1.5937562 
     680    1.9608643     2.939554   -4.4965425   -1.5569885 
     690    1.9842842    2.9746631   -4.4819041    -1.507241 
     700    2.0006285    2.9991649   -4.4552117   -1.4560468 
     710    2.0314028     3.045299   -4.4497255   -1.4044265 
     720    2.0444541    3.0648644   -4.4425354    -1.377671 
     730     2.046272    3.0675897   -4.4521218   -1.3845321 
     740    1.9925803    2.9870998   -4.4114906   -1.4243908 
     750    1.9802795    2.9686596   -4.4465496   -1.4778901 
     760     1.952293    2.9267047   -4.4511468    -1.524442 
     770    1.9547681     2.930415   -4.4709769   -1.5405619 
     780    1.9637072    2.9438157   -4.4662092   -1.5223935 
     790    1.9844908    2.9749727    -4.425169   -1.4501963 
     800      2.07138    3.1052293   -4.4489595   -1.3437302 
     810     2.058878    3.0864875   -4.4121264   -1.3256389 
     820    2.0283749    3.0407599   -4.3921198   -1.3513599 
     830    2.0279563    3.0401324   -4.4403956   -1.4002632 
     840    2.0208235    3.0294395   -4.4877392   -1.4582997 
     850    1.9733779    2.9583132   -4.4576538   -1.4993406 
     860    1.9926011     2.987131   -4.4977997   -1.5106687 
     870    1.9535148    2.9285363   -4.4365582   -1.5080219 
     880    1.9722651     2.956645   -4.4288318   -1.4721867 
     890    2.0485061    3.0709389   -4.4770025   -1.4060636 
     900     2.051674    3.0756878   -4.4415412   -1.3658535 
     910    2.0150482    3.0207817   -4.3871823   -1.3664006 
     920    2.0351239    3.0508774   -4.4327763   -1.3818989 
     930    2.0007749    2.9993844    -4.404876   -1.4054916 
     940    2.0008633    2.9995169   -4.4182509    -1.418734 
     950    2.0427887    3.0623679   -4.4905869    -1.428219 
     960    2.0053857    3.0062966   -4.4677332   -1.4614366 
     970    1.9561129    2.9324312   -4.4352518   -1.5028206 
     980    1.9551854    2.9310406   -4.4541554   -1.5231148 
     990    1.9503677    2.9238185    -4.432535   -1.5087165 
    1000    2.0179313    3.0251037   -4.4593416   -1.4342379 
    1010    2.0781051     3.115311   -4.4683278   -1.3530168 
    1020    2.0635903    3.0935516   -4.4322404   -1.3386887 
    1030    2.0297076    3.0427578    -4.408095   -1.3653372 
    1040    2.0213161    3.0301779   -4.4345928   -1.4044148 
    1050    2.0073039    3.0091721   -4.4499184   -1.4407463 
    1060    1.9846265    2.9751761   -4.4479775   -1.4728014 
    1070    1.9533134    2.9282343   -4.4176006   -1.4893663 
    1080    1.9950886      2.99086   -4.4732606   -1.4824006 
    1090    2.0224854    3.0319308   -4.5054079   -1.4734771 
    1100    2.0141133    3.0193802   -4.4936469   -1.4742668 
    1110    2.0158105    3.0219245   -4.5116509   -1.4897264 
    1120    1.9217025    2.8808461   -4.4109549   -1.5301088 
    1130    1.9482714    2.9206759   -4.4517578   -1.5310819 
    1140    1.9406143    2.9091969    -4.387715   -1.4785181 
    1150    2.0535161    3.0784494   -4.4832589   -1.4048095 
    1160    2.0553926    3.0812624   -4.4468776   -1.3656152 
    1170    2.0384319    3.0558365   -4.4138215    -1.357985 
    1180    2.0296875    3.0427276   -4.4185732   -1.3758456 
    1190    1.9934465    2.9883983   -4.4086674   -1.4202691 
    1200    2.0196288    3.0276485   -4.5092579   -1.4816094 
    1210    1.9432553    2.9131561   -4.4574427   -1.5442866 
    1220    1.9578061    2.9349694   -4.4891168   -1.5541474 
    1230    1.9333913    2.8983689   -4.4318584   -1.5334895 
    1240     1.988706    2.9812918   -4.4849313   -1.5036395 
    1250    1.9738601    2.9590361   -4.4414662   -1.4824301 
    1260    2.0091283    3.0119071   -4.4692046   -1.4572976 
    1270    2.0089486    3.0116377   -4.4483792   -1.4367415 
    1280    2.0245945    3.0350926   -4.4560472   -1.4209545 
    1290    2.0400325    3.0582359   -4.4775512   -1.4193153 
    1300    2.0091107    3.0118806   -4.4560122   -1.4441316 
    1310    1.9807835    2.9694151   -4.4736568   -1.5042417 
    1320    1.9360059    2.9022884   -4.4782938   -1.5760054 
    1330    1.9742427    2.9596097   -4.5687162   -1.6091065 
    1340    1.9079733    2.8602645   -4.4697103   -1.6094458 
    1350    1.9943467    2.9897478    -4.535599   -1.5458511 
    1360    2.0435441    3.0635002   -4.5364944   -1.4729942 
    1370    2.0452688    3.0660857   -4.5270924   -1.4610067 
    1380    1.9859554    2.9771684   -4.4471724    -1.470004 
    1390     1.947555    2.9196018   -4.3896673   -1.4700655 
    1400     2.019019    3.0267343   -4.4841488   -1.4574145 
    1410     2.012067    3.0163125   -4.4599578   -1.4436453 
    1420    2.0029829    3.0026944   -4.4302621   -1.4275676 
    1430    2.0455816    3.0665546   -4.4665359   -1.3999813 
    1440    2.0145282    3.0200022    -4.398798   -1.3787959 
    1450    2.0398714    3.0579944   -4.4306483   -1.3726539 
    1460     2.008053    3.0102951   -4.4076283   -1.3973332 
    1470    2.0209025     3.029558   -4.4788441   -1.4492861 
    1480    2.0062449    3.0075846   -4.5277355   -1.5201509 
    1490    1.9728423    2.9575103   -4.5332222   -1.5757119 
    1500    1.9345448     2.900098   -4.4973615   -1.5972635 
    1510    1.9536154     2.928687   -4.5024115   -1.5737245 
    1520    1.9610694    2.9398614   -4.4594419   -1.5195805 
    1530    1.9365423    2.9030925   -4.3619521   -1.4588596 
    1540    2.0242813    3.0346232   -4.4473976   -1.4127744 
    1550    2.0420499    3.0612602   -4.4659654   -1.4047052 
    1560    2.0077678    3.0098676   -4.4336441   -1.4237765 
    1570    2.0140517    3.0192879   -4.4675422   -1.4482543 
    1580    1.9944371    2.9898833   -4.4666276   -1.4767442 
    1590    1.9707464    2.9543683   -4.4577188   -1.5033505 
    1600    1.9714922    2.9554864   -4.4804047   -1.5249183 
    1610    1.9317067    2.8958435   -4.4242939   -1.5284505 
    1620    2.0137867    3.0188906    -4.505181   -1.4862904 
    1630    2.0441812    3.0644553   -4.4886669   -1.4242116 
    1640    2.0550694    3.0807779   -4.4692688   -1.3884909 
    1650     2.033832    3.0489406     -4.44224   -1.3932993 
    1660    2.0408698    3.0594912   -4.4933521   -1.4338609 
    1670    1.9435021    2.9135261   -4.4167907   -1.5032647 
    1680    1.9816009    2.9706404   -4.5097748   -1.5391344 
    1690     1.964547    2.9450748   -4.4945184   -1.5494436 
    1700    1.9695229    2.9525342    -4.482846   -1.5303118 
    1710    1.9947331     2.990327   -4.4609582   -1.4706312 
    1720    1.9926583    2.9872167     -4.36438   -1.3771632 
    1730    2.0656881    3.0966966    -4.419877   -1.3231805 
    1740    2.0630817    3.0927892   -4.4239279   -1.3311387 
    1750    2.0143768    3.0197752   -4.3830977   -1.3633225 
    1760    2.0314678    3.0453966   -4.4572324   -1.4118358 
    1770     1.999507    2.9974836   -4.4736851   -1.4762015 
    1780    1.9610904    2.9398929   -4.4590908   -1.5191979 
    1790    1.9655787    2.9466214    -4.470875   -1.5242536 
    1800    1.9671322    2.9489502   -4.4519804   -1.5030302 
    1810    2.0158321    3.0219569   -4.4771488   -1.4551919 
    1820    2.0338587    3.0489808   -4.4490146   -1.4000338 
    1830    2.0062934    3.0076573   -4.3678782   -1.3602209 
    1840    2.0595645    3.0875166   -4.4223507   -1.3348341 
    1850    2.0679149    3.1000347   -4.4538406   -1.3538059 
    1860    1.9857128    2.9768047   -4.4509832   -1.4741785 
    1870     1.941802    2.9109774   -4.4632903   -1.5523129 
    1880    1.9491675    2.9220191    -4.479641   -1.5576219 
    1890    1.9904176    2.9838576   -4.5115455   -1.5276879 
    1900    1.9577832     2.934935   -4.4140929   -1.4791579 
    1910    1.9720326    2.9562965    -4.368277   -1.4119805 
    1920     2.064693    3.0952047    -4.458359   -1.3631543 
    1930    2.0210458    3.0297728    -4.393037   -1.3632642 
    1940    2.0241827    3.0344753   -4.4262703    -1.391795 
    1950    1.9877291    2.9798273   -4.4180401   -1.4382128 
    1960    1.9998232    2.9979577     -4.47273   -1.4747722 
    1970    1.9975422    2.9945382   -4.5016171   -1.5070789 
    1980    1.9640642     2.944351   -4.4842581    -1.539907 
    1990    1.9040621    2.8544012   -4.4017573   -1.5473561 
    2000    1.9870786    2.9788521   -4.4377556   -1.4589035 
    2010    2.1355175    3.2013786   -4.5420501   -1.3406716 
    2020    2.0264652     3.037897   -4.3864111   -1.3485142 
    2030    2.0307347    3.0442975   -4.4274285    -1.383131 
    2040    1.9923643    2.9867759   -4.4143581   -1.4275822 
    2050    1.9951538    2.9909578   -4.4557534   -1.4647956 
    2060    1.9595993    2.9376577   -4.4305264   -1.4928687 
    2070    1.9668497    2.9485268   -4.4407615   -1.4922347 
    2080    1.9901991    2.9835301   -4.4399305   -1.4564004 
    2090    2.0483192    3.0706587    -4.460961   -1.3903024 
    2100     2.094434    3.1397898   -4.4802584   -1.3404686 
    2110    2.0230046    3.0327091   -4.3758208   -1.3431117 
    2120    2.0084381    3.0108724   -4.3986629   -1.3877905 
    2130    1.9610857    2.9398858   -4.4225667   -1.4826809 
    2140     1.939699    2.9078249   -4.4536589    -1.545834 
    2150    1.9223912    2.8818785   -4.4289581   -1.5470796 
    2160    1.9956307    2.9916727   -4.4980538   -1.5063811 
    2170     2.002298    3.0016677    -4.468961   -1.4672933 
    2180    2.0066727    3.0082259   -4.4515323   -1.4433064 
    2190    1.9755433    2.9615594   -4.3887956   -1.4272362 
    2200    2.0051656    3.0059666   -4.4042604   -1.3982939 
    2210    2.0235931    3.0335914   -4.4055686   -1.3719771 
    2220    2.0267356    3.0383023   -4.4119404   -1.3736381 
    2230    2.0151932     3.020999   -4.4170494   -1.3960504 
    2240    2.0124458    3.0168804   -4.4353294    -1.418449 
    2250     2.002109    3.0013844   -4.4378408   -1.4364564 
    2260    1.9822215    2.9715708   -4.4146979   -1.4431271 
    2270    1.9890055    2.9817407   -4.4238033   -1.4420626 
    2280    2.0627744    3.0923285   -4.5309332   -1.4386047 
    2290    1.9793744    2.9673027    -4.430899   -1.4635963 
    2300    1.9245003    2.8850403   -4.3779614   -1.4929211 
    2310    2.0054427     3.006382   -4.4987737   -1.4923917 
    2320    2.0147725    3.0203684   -4.4931795   -1.4728111 
    2330    2.0456182    3.0666094   -4.5138987   -1.4472893 
    2340    1.9998997    2.9980724   -4.4365742   -1.4385018 
    2350    2.0121668    3.0164621   -4.4503279   -1.4338658 
    2360    2.0165043    3.0229645   -4.4650534   -1.4420889 
    2370     1.998633    2.9961735   -4.4524234   -1.4562499 
    2380    1.9575443    2.9345769   -4.4108341   -1.4762572 
    2390    2.0090786    3.0118325   -4.5021608   -1.4903283 
    2400    1.9694854     2.952478    -4.456967   -1.5044891 
    2410    1.9790101    2.9667566   -4.4709998   -1.5042432 
    2420     1.992637    2.9871849   -4.4654121   -1.4782273 
    2430    2.0388411    3.0564499   -4.4830901   -1.4266402 
    2440    2.0479682    3.0701325   -4.4548859   -1.3847534 
    2450    2.0659263    3.0970536   -4.4745296    -1.377476 
    2460    2.0214631    3.0303983   -4.4516901   -1.4212919 
    2470    1.9492271    2.9221084   -4.4129899   -1.4908814 
    2480    1.9740989    2.9593941   -4.4913133   -1.5319192 
    2490    1.9526045    2.9271716   -4.4720816     -1.54491 
    2500    1.9857133    2.9768053   -4.5061519   -1.5293466 
    2510    1.9769835    2.9637185   -4.4464882   -1.4827697 
    2520    2.0400818    3.0583098   -4.4182119   -1.3599021 
    2530    2.0646506    3.0951411   -4.3946196   -1.2994784 
    2540    2.0741083    3.1093194   -4.4202025   -1.3108831 
    2550    2.0285594    3.0410365   -4.4082287   -1.3671922 
    2560    1.9947661    2.9903765   -4.4181413   -1.4277647 
    2570     1.985879    2.9770537   -4.4447024   -1.4676487 
    2580    1.9717749    2.9559102    -4.444978   -1.4890678 
    2590    2.0224648       3.0319   -4.5246216   -1.4927216 
    2600    1.9591037    2.9369147   -4.4374634   -1.5005487 
    2610    1.9976869    2.9947552   -4.4895934   -1.4948382 
    2620    1.9611617    2.9399998   -4.4168779   -1.4768781 
    2630    2.0374401    3.0543496   -4.4738402   -1.4194906 
    2640    2.0740412    3.1092187   -4.4796637    -1.370445 
    2650    2.0513716    3.0752345   -4.4406648   -1.3654303 
    2660    1.9846481    2.9752085   -4.3792242   -1.4040157 
    2670    2.0148594    3.0204986   -4.4842771   -1.4637786 
    2680    1.9194502    2.8774697   -4.3974882   -1.5200186 
    2690    1.9870139    2.9787552   -4.5087487   -1.5299935 
    2700    1.9209959    2.8797869    -4.404344   -1.5245571 
    2710    1.9820626    2.9713326   -4.4519441   -1.4806115 
    2720     2.032884    3.0475196   -4.4654281   -1.4179085 
    2730    2.0598789    3.0879878   -4.4738465   -1.3858586 
    2740    2.0641843    3.0944421   -4.4942723   -1.3998302 
    2750    1.9451103    2.9159369   -4.3395361   -1.4235992 
    2760    2.0670533    3.0987431   -4.5308229   -1.4320798 
    2770    1.9961952     2.992519   -4.4585026   -1.4659837 
    2780    1.9757696    2.9618987   -4.4635367   -1.5016381 
    2790    1.9833509    2.9732639   -4.4940269   -1.5207631 
    2800    1.9577116    2.9348278   -4.4559985   -1.5211708 
    2810    1.9878748    2.9800457   -4.4576804   -1.4776347 
    2820    2.0624216    3.0917997   -4.4986667    -1.406867 
    2830    2.0226679    3.0322044   -4.3996963   -1.3674919 
    2840    2.0431594    3.0629235   -4.4164592   -1.3535356 
    2850     2.049295    3.0721214   -4.4441501   -1.3720287 
    2860    1.9625685    2.9421087   -4.4050472   -1.4629385 
    2870    1.9307282    2.8943766    -4.436605   -1.5422284 
    2880    1.9860027    2.9772393   -4.5310595   -1.5538202 
    2890    1.9284631     2.890981   -4.4325215   -1.5415405 
    2900    1.9964724    2.9929345   -4.4843635    -1.491429 
    2910    2.0230862    3.0328315   -4.4751565    -1.442325 
    2920    2.0507738    3.0743384   -4.5012112   -1.4268728 
    2930    2.0019088    3.0010843   -4.4418175   -1.4407332 
    2940    2.0382699    3.0555937   -4.5172274   -1.4616337 
    2950    1.9986062    2.9961332   -4.4924051   -1.4962719 
    2960    1.9493325    2.9222665   -4.4438877   -1.5216213 
    2970    1.9681319     2.950449   -4.4660672   -1.5156182 
    2980    2.0271024    3.0388523   -4.5185839   -1.4797315 
    2990    2.0213589    3.0302421   -4.4317142   -1.4014721 
    3000    2.1053131    3.1560988   -4.4391198   -1.2830211 
    3010    2.0906665    3.1341419   -4.4053824   -1.2712405 
    3020    2.0931176    3.1378164   -4.4550643   -1.3172478 
    3030    2.0147763    3.0203741   -4.4065581    -1.386184 
    3040     1.989796    2.9829258   -4.4150603   -1.4321345 
    3050    2.0133611    3.0182525   -4.4772304   -1.4589779 
    3060    1.9371351    2.9039813    -4.385193   -1.4812117 
    3070    2.0208928    3.0295434   -4.5107704   -1.4812271 
    3080    2.0135227    3.0184947   -4.5095195   -1.4910248 
    3090    1.9594322     2.937407    -4.451369    -1.513962 
    3100    1.9551183      2.93094    -4.457828    -1.526888 
    3110    1.9648338    2.9455047   -4.4543346   -1.5088299 
    3120    2.0000036    2.9982281   -4.4408134   -1.4425853 
    3130     2.049884    3.0730044   -4.4567528   -1.3837484 
    3140    2.0162465    3.0225781   -4.3841064   -1.3615284 
    3150    2.0649555    3.0955982   -4.4556599   -1.3600616 
    3160    2.0006113    2.9991392   -4.4019947   -1.4028556 
    3170     1.969837    2.9530051    -4.415329    -1.462324 
    3180    1.9290525    2.8918645   -4.3997004   -1.5078359 
    3190    1.9424211    2.9119056   -4.4201889   -1.5082834 
    3200    1.9881495    2.9804575     -4.43208   -1.4516225 
    3210    2.0897994     3.132842   -4.4690558   -1.3362138 
    3220    2.0672356    3.0990164   -4.4028439   -1.3038275 
    3230    2.0664707    3.0978698   -4.4254436   -1.3275738 
    3240    2.0033268      3.00321   -4.3804851   -1.3772751 
    3250    2.0153117    3.0211767   -4.4431014   -1.4219247 
    3260     2.008368    3.0107673   -4.4698596   -1.4590922 
    3270     1.964171    2.9445111    -4.428771   -1.4842599 
    3280    1.9748899    2.9605799   -4.4431334   -1.4825536 
    3290    2.0229747    3.0326643   -4.4946048   -1.4619405 
    3300    2.0177384    3.0248147   -4.4654119   -1.4405972 
    3310     2.010149    3.0134373   -4.4237634   -1.4103262 
    3320    2.0607412    3.0892806   -4.4483431   -1.3590625 
    3330    2.0510212    3.0747092   -4.4047592   -1.3300499 
    3340    2.0580346    3.0852231    -4.434139    -1.348916 
    3350    1.9800847    2.9683675   -4.3772372   -1.4088696 
    3360    1.9942044    2.9895345   -4.4462397   -1.4567051 
    3370    1.9797205    2.9678216   -4.4533426    -1.485521 
    3380    1.9886703    2.9812382   -4.4838566   -1.5026184 
    3390    2.0107179    3.0142901   -4.5398255   -1.5255354 
    3400    1.9601343    2.9384596   -4.5125241   -1.5740645 
    3410    1.9145858    2.8701773   -4.5054626   -1.6352853 
    3420    1.9022249     2.851647   -4.5156831   -1.6640361 
    3430    1.9616783    2.9407743   -4.5647615   -1.6239872 
    3440     1.978143    2.9654566   -4.4918028   -1.5263462 
    3450    1.9995279    2.9975149   -4.4594765   -1.4619616 
    3460    2.0081184    3.0103932   -4.4511371   -1.4407439 
    3470     2.001602    3.0006243   -4.4307544   -1.4301301 
    3480    2.0283576     3.040734   -4.4647915   -1.4240575 
    3490    1.9911572    2.9849664    -4.418689   -1.4337225 
    3500    2.0038113    3.0039363   -4.4529058   -1.4489695 
    3510    1.9899471    2.9831524   -4.4555731   -1.4724207 
    3520    1.9675233    2.9495365   -4.4617466     -1.51221 
    3530    1.9200245    2.8783305   -4.4232527   -1.5449221 
    3540    1.9782084    2.9655548   -4.5023281   -1.5367733 
    3550    1.9907437    2.9843465   -4.4844565   -1.5001099 
    3560    2.0474467    3.0693506   -4.5157639   -1.4464133 
    3570    2.0482679    3.0705817   -4.4799458   -1.4093641 
    3580    2.0336443    3.0486593   -4.4515356   -1.4028763 
    3590    1.9957316    2.9918239   -4.4106875   -1.4188636 
    3600     2.008876    3.0115289   -4.4742433   -1.4627144 
    3610    1.9454697    2.9164758   -4.4513846   -1.5349088 
    3620    1.9446758    2.9152856   -4.4979436    -1.582658 
    3630    1.9778385    2.9650002   -4.5531902   -1.5881899 
    3640     1.927836    2.8900408   -4.4528164   -1.5627756 
    3650    1.9815418    2.9705519   -4.4501505   -1.4795986 
    3660    2.0321176    3.0463706    -4.457841   -1.4114704 
    3670    2.0263944    3.0377909   -4.4374873   -1.3996964 
    3680    1.9838543    2.9740185   -4.3787133   -1.4046948 
    3690    1.9871956    2.9790275   -4.3880546   -1.4090271 
    3700    2.0159188    3.0220868   -4.4325191   -1.4104324 
    3710    2.0306442    3.0441619    -4.470502   -1.4263402 
    3720    1.9429072    2.9126342   -4.3865291   -1.4738949 
    3730    1.9569917    2.9337486   -4.4372007   -1.5034521 
    3740    1.9798011    2.9679424   -4.4610062   -1.4930638 
    3750    2.0105338    3.0140141    -4.462817    -1.448803 
    3760    1.9956731    2.9917362   -4.3823067   -1.3905705 
    3770    2.0749919     3.110644   -4.4390877   -1.3284437 
    3780     2.046343     3.067696    -4.380374    -1.312678 
    3790    2.0371674    3.0539409   -4.3847575   -1.3308166 
    3800    1.9990566    2.9968084     -4.39225   -1.3954416 
    3810     2.001895    3.0010635   -4.4850339   -1.4839704 
    3820      1.94782    2.9199991   -4.4467873   -1.5267882 
    3830    1.9487463    2.9213877   -4.4392447    -1.517857 
    3840    1.9373617     2.904321   -4.3863344   -1.4820135 
    3850    2.0045816    3.0050911   -4.4344992   -1.4294081 
    3860    2.0616175    3.0905942   -4.4871353   -1.3965411 
    3870    2.0293552    3.0422294   -4.4422643   -1.4000348 
    3880    2.0075679    3.0095679   -4.4412398   -1.4316719 
    3890    1.9869176    2.9786108   -4.4558382   -1.4772274 
    3900    1.9609343     2.939659   -4.4517894   -1.5121304 
    3910    1.9944485    2.9899004   -4.5152824    -1.525382 
    3920    1.9675152    2.9495245   -4.4808763   -1.5313519 
    3930    1.9223151    2.8817644   -4.3969605   -1.5151961 
    3940    2.0481512    3.0704068   -4.5322044   -1.4617977 
    3950    1.9972551    2.9941079    -4.409962   -1.4158541 
    3960    2.0661343    3.0973654   -4.4717809   -1.3744155 
    3970    2.0530094    3.0776898    -4.450241   -1.3725512 
    3980    1.9977657    2.9948733   -4.3964173    -1.401544 
    3990     1.999211    2.9970399   -4.4419306   -1.4448907 
    4000    1.9680475    2.9503224   -4.4487059   -1.4983835 
    4010     1.968488    2.9509828   -4.4932972   -1.5423145 
    4020    1.9553708    2.9313186   -4.5037009   -1.5723823 
    4030    1.9391854    2.9070549   -4.4843827   -1.5773278 
    4040    1.9931057    2.9878874   -4.5190148   -1.5311274 
    4050    2.0466218    3.0681141   -4.5135753   -1.4454612 
    4060    2.0620377    3.0912241   -4.4853063   -1.3940822 
    4070    2.0572697    3.0840764   -4.4727904   -1.3887141 
    4080    2.0092134    3.0120347   -4.4305066   -1.4184719 
    4090    1.9607956     2.939451   -4.3944211     -1.45497 
    4100    1.9770555    2.9638264   -4.4505226   -1.4866963 
    4110    1.9686322    2.9511989   -4.4560295   -1.5048306 
    4120    1.9787172    2.9663174   -4.4668426   -1.5005252 
    4130    2.0063065    3.0076769   -4.4864486   -1.4787717 
    4140     1.951544    2.9255818    -4.361627   -1.4360452 
    4150    2.0508165    3.0744024   -4.4425055   -1.3681031 
    4160    2.0679861    3.1001415   -4.4348116   -1.3346702 
    4170    2.0387309    3.0562846   -4.3939248   -1.3376402 
    4180    2.0125192    3.0169905   -4.3958442   -1.3788537 
    4190    2.0251531      3.03593   -4.4820172   -1.4460873 
    4200    1.9790847    2.9668684    -4.472649   -1.5057807 
    4210    1.9470715    2.9188771   -4.4411295   -1.5222524 
    4220    1.9623155    2.9417295   -4.4497455    -1.508016 
    4230    1.9805791    2.9691087   -4.4495682   -1.4804595 
    4240    2.0087906    3.0114009   -4.4590754   -1.4476746 
    4250    2.0218254    3.0309414   -4.4568327   -1.4258913 
    4260    1.9849877    2.9757176   -4.3991722   -1.4234545 
    4270    2.0588935    3.0865107    -4.511451   -1.4249402 
    4280    2.0041407    3.0044301   -4.4511879   -1.4467578 
    4290    1.9842556    2.9746202   -4.4523356   -1.4777154 
    4300    1.9594648    2.9374559   -4.4713266   -1.5338707 
    4310    1.9472782    2.9191868   -4.5505754   -1.6313886 
    4320    1.8794077    2.8174415    -4.499554   -1.6821125 
    4330    1.9088506    2.8615797   -4.5162408   -1.6546611 
    4340    1.9323878    2.8968645   -4.4700521   -1.5731875 
    4350    1.9748714    2.9605522   -4.4648931   -1.5043409 
    4360    2.0137422    3.0188238   -4.4867872   -1.4679634 
    4370    1.9902022    2.9835347   -4.4255895   -1.4420547 
    4380    2.0054216    3.0063504   -4.4177842   -1.4114338 
    4390    2.0023097    3.0016852   -4.3813424   -1.3796572 
    4400    2.0409595    3.0596256    -4.411156   -1.3515303 
    4410    2.0412619    3.0600789   -4.4219024   -1.3618235 
    4420    2.0186725    3.0262149   -4.4455646   -1.4193497 
    4430    1.9447804    2.9154425   -4.4141466   -1.4987041 
    4440    1.9971997    2.9940248   -4.5283173   -1.5342926 
    4450     1.918287    2.8757259   -4.4164614   -1.5407355 
    4460    1.9761142    2.9624153   -4.4748957   -1.5124804 
    4470    2.0246434     3.035166   -4.5168686   -1.4817026 
    4480    1.9986997    2.9962734   -4.4692354    -1.472962 
    4490    2.0361385    3.0523984    -4.529085   -1.4766866 
    4500    2.0206334    3.0291546   -4.5178307   -1.4886761 
    4510    1.9883733     2.980793   -4.4805653   -1.4997723 
    4520    1.9692015    2.9520524   -4.4493529   -1.4973005 
    4530     1.988626    2.9811718    -4.463368   -1.4821962 
    4540     1.950722    2.9243496   -4.3930866    -1.468737 
    4550    1.9893228    2.9822165    -4.427242   -1.4450255 
    4560    2.0167071    3.0232686   -4.4522303   -1.4289617 
    4570    1.9910153    2.9847536   -4.4125281   -1.4277744 
    4580    2.0418236     3.060921   -4.4896895   -1.4287685 
    4590     2.022482    3.0319258   -4.4877988    -1.455873 
    4600    1.9679375    2.9501574   -4.4601279   -1.5099704 
    4610    1.9364016    2.9028817   -4.4560173   -1.5531355 
    4620    1.9533054    2.9282224   -4.4876763   -1.5594539 
    4630    2.0089692    3.0116686   -4.5441826    -1.532514 
    4640    2.0502144    3.0734997   -4.5300787    -1.456579 
    4650    2.0869658    3.1285942   -4.5097754   -1.3811812 
    4660    2.0497354    3.0727817   -4.4419067    -1.369125 
    4670    2.0048436    3.0054839   -4.4002639     -1.39478 
    4680    1.9901042    2.9833879   -4.4273723   -1.4439844 
    4690    1.9412653    2.9101729   -4.4057239    -1.495551 
    4700    1.9697432    2.9528645   -4.4673721   -1.5145077 
    4710    1.9585463     2.936079   -4.4395477   -1.5034687 
    4720    2.0297428    3.0428106   -4.4649219   -1.4221113 
    4730    2.0777893    3.1148375   -4.4401674   -1.3253298 
    4740    2.0714489    3.1053325   -4.4108432   -1.3055106 
    4750    2.0622919    3.0916053   -4.4298347   -1.3382294 
    4760    2.0546687    3.0801772   -4.4912759   -1.4110987 
    4770    1.9708274    2.9544897   -4.4331883   -1.4786986 
    4780    1.9529535    2.9276948   -4.4263627   -1.4986678 
    4790    2.0074537    3.0093966   -4.4988272   -1.4894305 
    4800    1.9965001    2.9929761   -4.4675242   -1.4745481 
    4810    1.9908123    2.9844494   -4.4383809   -1.4539316 
    4820    2.0332123    3.0480116   -4.4742721   -1.4262605 
    4830    2.0190104    3.0267215   -4.4246968   -1.3979754 
    4840    2.0135679    3.0185626    -4.390087   -1.3715244 
    4850    2.0862617    3.1275387   -4.4666594   -1.3391207 
    4860    2.0569599     3.083612   -4.4402657   -1.3566537 
    4870    2.0127332    3.0173113    -4.444687   -1.4273757 
    4880    1.9731359    2.9579505   -4.4542298   -1.4962793 
    4890    1.9735523    2.9585747   -4.4802452   -1.5216705 
    4900    1.9595107    2.9375248   -4.4521077   -1.5145829 
    4910    2.0077112    3.0097827   -4.4943209   -1.4845382 
    4920    2.0018183    3.0009485   -4.4507706   -1.4498221 
    4930    2.0102259    3.0135526   -4.4159612   -1.4024087 
    4940    2.0616062    3.0905773   -4.4313568   -1.3407794 
    4950    2.0399212    3.0580691    -4.349715   -1.2916459 
    4960    2.0454609    3.0663737   -4.3073483   -1.2409746 
    4970    2.1183693    3.1756715   -4.3474604   -1.1717889 
    4980    2.1325391    3.1969136   -4.3587176    -1.161804 
    4990    2.1095604    3.1624659   -4.4285527   -1.2660868 
    5000    2.0255556    3.0365334   -4.4036816   -1.3671482 
    5010     2.001385     3.000299   -4.4145674   -1.4142684 
    5020    1.9911006    2.9848816   -4.4375288   -1.4526472 
    5030    2.0147965    3.0204043   -4.5069785   -1.4865742 
    5040    1.9749825    2.9607188    -4.479254   -1.5185352 
    5050    1.9418404    2.9110351   -4.4430324   -1.5319974 
    5060    1.9975294    2.9945191   -4.5064041    -1.511885 
    5070     2.009942    3.0131269   -4.4903333   -1.4772064 
    5080    2.0074365    3.0093709   -4.4548041   -1.4454331 
    5090    2.0006414    2.9991843   -4.4105611   -1.4113768 
    5100    2.0506607    3.0741688   -4.4398563   -1.3656876 
    5110    2.0321007    3.0463453   -4.3735912   -1.3272459 
    5120    2.0292172    3.0420226   -4.3400521   -1.2980294 
    5130    2.0364801    3.0529104   -4.3204949   -1.2675844 
    5140    2.1090032    3.1616307   -4.4125728   -1.2509421 
    5150    2.0203807    3.0287757   -4.3396432   -1.3108675 
    5160    1.9911947    2.9850227   -4.3858659   -1.4008432 
    5170    1.9955664    2.9915763   -4.4446276   -1.4530513 
    5180    1.9794292    2.9673848   -4.4533729   -1.4859881 
    5190    1.9350969    2.9009258   -4.3939236   -1.4929978 
    5200    2.0327826    3.0473676   -4.5065351   -1.4591676 
    5210    2.0203873    3.0287856   -4.4533774   -1.4245918 
    5220     2.026113    3.0373691   -4.4337112   -1.3963421 
    5230    2.0149583     3.020647   -4.4012597   -1.3806128 
    5240    2.0370296    3.0537342   -4.4251754   -1.3714412 
    5250     2.000719    2.9993006    -4.387713   -1.3884123 
    5260    2.0133173    3.0181869   -4.4616936   -1.4435067 
    5270    1.9931525    2.9879577   -4.5027026    -1.514745 
    5280    1.9825763    2.9721026   -4.5358447   -1.5637421 
    5290    1.9166953    2.8733398   -4.4616962   -1.5883564 
    5300    1.9493381    2.9222749   -4.4835724   -1.5612974 
    5310    1.9700774    2.9533654   -4.4470192   -1.4936538 
    5320     2.015669    3.0217123   -4.4565788   -1.4348665 
    5330    2.0319456    3.0461127   -4.4571504   -1.4110377 
    5340    2.0372539    3.0540705    -4.470448   -1.4163775 
    5350    2.0019334    3.0011211   -4.4452913   -1.4441702 
    5360     1.989767    2.9828823   -4.4654051   -1.4825228 
    5370    1.9996009    2.9976245   -4.5135893   -1.5159648 
    5380    1.9545859    2.9301419   -4.4709576   -1.5408157 
    5390    1.9886342    2.9811841   -4.5155588   -1.5343747 
    5400    2.0041854    3.0044971   -4.4974574   -1.4929603 
    5410    2.0690934    3.1018014   -4.5117692   -1.4099678 
    5420    2.0402524    3.0585656   -4.4205482   -1.3619826 
    5430    2.0272159    3.0390225   -4.3871382   -1.3481157 
    5440     2.041852    3.0609636   -4.4230195   -1.3620559 
    5450    2.0317172    3.0457703   -4.4582775   -1.4125072 
    5460    1.9920284    2.9862724   -4.4791179   -1.4928455 
    5470    1.9604022    2.9388613   -4.4808231   -1.5419618 
    5480    1.9558687     2.932065   -4.4848522   -1.5527871 
    5490    1.9661684    2.9475055   -4.4873182   -1.5398128 
    5500    1.9516011    2.9256674    -4.430556   -1.5048886 
    5510    1.9714004    2.9553488   -4.4076662   -1.4523174 
    5520    2.0043188    3.0046971   -4.4136291    -1.408932 
    5530    2.0106431     3.014178   -4.4021373   -1.3879593 
    5540    2.0177067     3.024767   -4.4072305   -1.3824635 
    5550    2.0481928    3.0704692   -4.4626782   -1.3922091 
    5560    1.9872688    2.9791373   -4.4080937   -1.4289564 
    5570    1.9673158    2.9492254   -4.4241573   -1.4749319 
    5580    1.9425743    2.9121353   -4.4097961   -1.4976608 
    5590     1.996438     2.992883   -4.4674863   -1.4746034 
    5600    2.0155499    3.0215338   -4.4227578   -1.4012239 
    5610    2.0707263    3.1042493   -4.3989925   -1.2947432 
    5620    2.1424205     3.211727   -4.4895412   -1.2778142 
    5630    2.0278698    3.0400026   -4.3778555   -1.3378529 
    5640     2.022243    3.0315674   -4.4307216   -1.3991541 
    5650    2.0284031    3.0408022   -4.4824046   -1.4416025 
    5660    1.9835279    2.9735293   -4.4458133   -1.4722841 
    5670    1.9841645    2.9744835   -4.4607847   -1.4863011 
    5680    1.9751984    2.9610425    -4.453749   -1.4927065 
    5690    1.9366962    2.9033234   -4.3758188   -1.4724954 
    5700    2.0681184    3.1003398   -4.4956687   -1.3953288 
    5710    2.0845097    3.1249121   -4.4690627   -1.3441505 
    5720    2.0261922    3.0374877   -4.3876498   -1.3501621 
    5730    2.0481612    3.0704218   -4.4587663   -1.3883445 
    5740    1.9758322    2.9619926   -4.4178527   -1.4558601 
    5750    1.9443466    2.9147921   -4.4110559   -1.4962638 
    5760    1.9513688    2.9253192   -4.4154196   -1.4901004 
    5770    2.0423114    3.0616523    -4.541374   -1.4797217 
    5780     1.973801    2.9589476   -4.4503854   -1.4914378 
    5790    1.9673517    2.9492794   -4.4317727   -1.4824933 
    5800    2.0226028    3.0321068   -4.4837507   -1.4516439 
    5810    2.0075948    3.0096082   -4.4396772    -1.430069 
    5820    2.0458421    3.0669452   -4.4714155   -1.4044704 
    5830    2.0401877    3.0584686   -4.4509068   -1.3924382 
    5840    2.0552017    3.0809763    -4.508471   -1.4274947 
    5850      1.96888    2.9515703   -4.4700335   -1.5184632 
    5860    1.9687484    2.9513732   -4.5286495   -1.5772764 
    5870    1.9630769     2.942871   -4.5309003   -1.5880294 
    5880    1.9497802    2.9229377   -4.4919925   -1.5690548 
    5890    1.9540631    2.9293582   -4.4482687   -1.5189105 
    5900    1.9866347    2.9781866    -4.437846   -1.4596593 
    5910    2.0514951    3.0754197   -4.4998277    -1.424408 
    5920    1.9882071    2.9805439   -4.3998336   -1.4192897 
    5930    1.9980437      2.99529   -4.4159536   -1.4206637 
    5940    2.0154168    3.0213343   -4.4438946   -1.4225603 
    5950    1.9960232    2.9922611   -4.4280642   -1.4358031 
    5960    2.0075158    3.0094897   -4.4837424   -1.4742527 
    5970    1.9260313    2.8873355   -4.4322505    -1.544915 
    5980    1.9450856       2.9159   -4.5171164   -1.6012164 
    5990    1.9640827    2.9443787   -4.5723035   -1.6279249 
    6000    1.9782359    2.9655959   -4.5851223   -1.6195264 
    6010    1.9966595     2.993215   -4.5501158   -1.5569009 
    6020    2.0266388    3.0381573   -4.5001667   -1.4620094 
    6030    1.9933397    2.9882383   -4.3936341   -1.4053958 
    6040    2.0645721    3.0950235   -4.4850137   -1.3899901 
    6050    2.0385835    3.0560638    -4.464091   -1.4080273 
    6060    1.9662481     2.947625   -4.3836084   -1.4359835 
    6070    1.9672068    2.9490622   -4.3982617   -1.4491995 
    6080    2.0247226    3.0352846   -4.4826011   -1.4473164 
    6090    2.0006619    2.9992149   -4.4412473   -1.4420323 
    6100    2.0187793    3.0263749   -4.4315588   -1.4051838 
    6110    2.0875457    3.1294636   -4.4850241   -1.3555606 
    6120     2.019148    3.0269278   -4.3717322   -1.3448045 
    6130     2.016294    3.0226493   -4.3762778   -1.3536286 
    6140    1.9846743    2.9752479   -4.3650625   -1.3898146 
    6150    1.9903028    2.9836855   -4.4156823   -1.4319968 
    6160    2.0086515    3.0111923   -4.4873522   -1.4761599 
    6170    1.9669187    2.9486302   -4.4780517   -1.5294215 
    6180    1.9584039    2.9358656     -4.51295   -1.5770844 
    6190     1.939246    2.9071457   -4.5053795   -1.5982339 
    6200    1.9305834    2.8941596   -4.4635065   -1.5693469 
    6210    2.0709234    3.1045449   -4.5697947   -1.4652498 
    6220      2.03149    3.0454298   -4.4555045   -1.4100747 
    6230    2.0323108    3.0466602   -4.4547233   -1.4080631 
    6240    1.9836622    2.9737306   -4.3955215   -1.4217909 
    6250    2.0361315    3.0523879   -4.4802003   -1.4278124 
    6260    1.9941071    2.9893886   -4.4349723   -1.4455837 
    6270     1.975965    2.9621916   -4.4290785   -1.4668869 
    6280     1.952116    2.9264393   -4.4110553    -1.484616 
    6290    1.9887844    2.9814093   -4.4696034    -1.488194 
    6300    2.0107849    3.0143905   -4.4940213   -1.4796308 
    6310    2.0001414    2.9984347   -4.4656857    -1.467251 
    6320    2.0340905    3.0493281   -4.5099048   -1.4605766 
    6330    1.9776604    2.9647331   -4.4393823   -1.4746492 
    6340      1.99019    2.9835164   -4.4709531   -1.4874367 
    6350     1.967084     2.948878   -4.4403345   -1.4914565 
    6360    2.0241631     3.034446   -4.5134378   -1.4789918 
    6370    1.9852688     2.976139   -4.4497527   -1.4736137 
    6380    1.9985958    2.9961177   -4.4657151   -1.4695974 
    6390    1.9953282    2.9912192   -4.4400047   -1.4487856 
    6400     2.000072    2.9983306   -4.4074777    -1.409147 
    6410    2.0141653    3.0194581   -4.3724287   -1.3529706 
    6420     2.063131    3.0928632   -4.3977997   -1.3049365 
    6430    2.0723572    3.1066942   -4.4076188   -1.3009246 
    6440    2.0097731    3.0128737    -4.364642   -1.3517683 
    6450    2.0473496    3.0692051   -4.4994903   -1.4302852 
    6460    1.9952677    2.9911286   -4.4817481   -1.4906195 
    6470     1.982807    2.9724485   -4.4796139   -1.5071654 
    6480    1.9356712    2.9017867   -4.4076193   -1.5058326 
    6490    2.0253042    3.0361565   -4.5092725   -1.4731159 
    6500    1.9979772    2.9951903   -4.4288807   -1.4336904 
    6510    2.0204711    3.0289113   -4.4205784   -1.3916671 
    6520    2.0250919    3.0358383   -4.3982952   -1.3624569 
    6530    2.0280817    3.0403203   -4.3904097   -1.3500894 
    6540    2.0368383    3.0534475   -4.4183267   -1.3648792 
    6550    2.0256843    3.0367264   -4.4815792   -1.4448527 
    6560    1.9890698    2.9818372   -4.5283813   -1.5465441 
    6570    1.9428424    2.9125372   -4.5000467   -1.5875096 
    6580    1.9584808    2.9359808    -4.511596   -1.5756153 
    6590    1.9857679    2.9768872   -4.5180967   -1.5412095 
    6600    1.9830834    2.9728629   -4.4734305   -1.5005676 
    6610     2.017473    3.0244167   -4.4736301   -1.4492134 
    6620     2.007842    3.0099787   -4.4230821   -1.4131034 
    6630    2.0489702    3.0716345   -4.4642922   -1.3926577 
    6640    2.0281982     3.040495   -4.4526241   -1.4121291 
    6650     1.988722    2.9813157   -4.4588801   -1.4775643 
    6660    1.9029321    2.8527071   -4.4296026   -1.5768955 
    6670    1.9045036    2.8550629   -4.4547451   -1.5996822 
    6680    1.9212816    2.8802151   -4.4442074   -1.5639923 
    6690    1.9706272    2.9541897   -4.4691066   -1.5149169 
    6700    1.9962646    2.9926229   -4.4608307   -1.4682077 
    6710    2.0118487    3.0159853   -4.4465722   -1.4305869 
    6720    2.0490794    3.0717982   -4.4850448   -1.4132466 
    6730    2.0235685    3.0335546   -4.4566325   -1.4230779 
    6740    2.0084606    3.0109061   -4.4631575   -1.4522513 
    6750    1.9578143    2.9349817   -4.4212431   -1.4862614 
    6760    1.9684048     2.950858   -4.4519788   -1.5011208 
    6770    1.9884561    2.9809172   -4.4753683   -1.4944511 
    6780    1.9823881    2.9718206   -4.4276968   -1.4558762 
    6790    2.0399873    3.0581682   -4.4540284   -1.3958603 
    6800    2.0800873    3.1182825   -4.4875837   -1.3693013 
    6810    2.0486986    3.0712274   -4.4732572   -1.4020298 
    6820     1.965568    2.9466054   -4.4249745   -1.4783691 
    6830    1.9704691    2.9539526   -4.4744282   -1.5204756 
    6840    1.9699047    2.9531065   -4.4824402   -1.5293336 
    6850    1.9926403    2.9871897   -4.5083756   -1.5211858 
    6860    1.9866999    2.9782844   -4.4841452   -1.5058607 
    6870    2.0028265      3.00246   -4.4784798   -1.4760198 
    6880     1.997253    2.9941047   -4.4366505   -1.4425459 
    6890    2.0122411    3.0165735   -4.4204361   -1.4038626 
    6900    2.0707098    3.1042246   -4.4459524   -1.3417279 
    6910    2.0901779    3.1334095   -4.3788568   -1.2454473 
    6920     2.120319    3.1785943   -4.3657433    -1.187149 
    6930    2.0892898    3.1320781   -4.3399699   -1.2078918 
    6940    2.0444295    3.0648275   -4.3649136   -1.3000861 
    6950    2.0455428    3.0664965   -4.4456335    -1.379137 
    6960    2.0043929    3.0048082   -4.4277427   -1.4229345 
    6970    1.9917844    2.9859067   -4.4415945   -1.4556878 
    6980    1.9541288    2.9294567   -4.4082155   -1.4787588 
    6990    2.0051274    3.0059093     -4.48362   -1.4777106 
    7000    2.0286357    3.0411508   -4.5102083   -1.4690575 
    7010    1.9953241     2.991213   -4.4561075   -1.4648944 
    7020    1.9437514    2.9138998   -4.3661139   -1.4522141 
    7030    2.0408158    3.0594102   -4.4599759   -1.4005658 
    7040    2.0350882    3.0508239   -4.3996556   -1.3488318 
    7050    2.0745543     3.109988   -4.4451195   -1.3351315 
    7060    2.0566932    3.0832122   -4.4629251   -1.3797129 
    7070    1.9828439    2.9725039   -4.4496334   -1.4771295 
    7080    1.9704068    2.9538593   -4.4834837   -1.5296244 
    7090    2.0047397    3.0053281   -4.5438631    -1.538535 
    7100    1.9741481    2.9594679   -4.4985195   -1.5390516 
    7110     2.002889    3.0025537   -4.5280981   -1.5255444 
    7120    1.9702981    2.9536963   -4.4560777   -1.5023814 
    7130    2.0320282    3.0462366   -4.4990001   -1.4527635 
    7140    2.0572355    3.0840251   -4.4846403   -1.4006152 
    7150    2.0375586    3.0545273   -4.4358398   -1.3813125 
    7160    2.0153188    3.0211873   -4.4169874   -1.3958001 
    7170    1.9974038    2.9943307   -4.4428829   -1.4485521 
    7180    1.9789817     2.966714   -4.4997399    -1.533026 
    7190    1.9231933    2.8830809   -4.4689463   -1.5858653 
    7200    1.9037856    2.8539867   -4.4281777    -1.574191 
    7210    1.9888974    2.9815787   -4.4879416   -1.5063629 
    7220    2.0369227     3.053574   -4.5072388   -1.4536648 
    7230    1.9910259    2.9847696   -4.4237846    -1.439015 
    7240    2.0490225     3.071713   -4.4977966   -1.4260836 
    7250    2.0388599    3.0564781      -4.4995   -1.4430219 
    7260    1.9800024    2.9682441   -4.4552876   -1.4870435 
    7270    1.9637862    2.9439343   -4.4692569   -1.5253226 
    7280    1.9159597    2.8722369     -4.42018   -1.5479431 
    7290     2.020281    3.0286262    -4.547435   -1.5188088 
    7300    1.9880168    2.9802586   -4.4162677   -1.4360091 
    7310    2.0326575    3.0471799   -4.3979074   -1.3507274 
    7320    2.0830722    3.1227572   -4.4411105   -1.3183533 
    7330    2.0906833    3.1341672   -4.4824453   -1.3482781 
    7340    1.9953912    2.9913137    -4.412612   -1.4212983 
    7350    1.9578449    2.9350276   -4.3940396    -1.459012 
    7360    1.9855978    2.9766322   -4.4425591   -1.4659269 
    7370    1.9783382    2.9657493   -4.4234129   -1.4576636 
    7380    2.0157887    3.0218917   -4.4635838   -1.4416921 
    7390    2.0061918    3.0075049   -4.4396018   -1.4320969 
    7400    1.9999339    2.9981237   -4.4147181   -1.4165945 
    7410    2.0456785    3.0666999   -4.4551787   -1.3884789 
    7420    2.0060369    3.0072728   -4.3770264   -1.3697536 
    7430    2.0187128    3.0262753   -4.3952569   -1.3689816 
    7440    2.0237374    3.0338077    -4.423038   -1.3892304 
    7450    2.0301548    3.0434281   -4.4743749   -1.4309468 
    7460     1.959824    2.9379945   -4.4255914    -1.487597 
    7470    1.9605862    2.9391371   -4.4626064   -1.5234692 
    7480    1.9342109    2.8995976   -4.4265551   -1.5269574 
    7490    2.0146669      3.02021   -4.5036216   -1.4834116 
    7500    2.0016072    3.0006321   -4.4240501    -1.423418 
    7510    2.0501406     3.073389   -4.4307864   -1.3573974 
    7520    2.0199982    3.0282022   -4.3530226   -1.3248204 
    7530    2.0444087    3.0647964   -4.3699747   -1.3051783 
    7540    2.0336988    3.0487411   -4.3548127   -1.3060716 
    7550    2.0160923    3.0223469   -4.3991023   -1.3767554 
    7560    1.9794757    2.9674545   -4.4445098   -1.4770552 
    7570    1.9318873    2.8961142   -4.4245882    -1.528474 
    7580    1.9499782    2.9232345   -4.4506717   -1.5274371 
    7590    1.9921732    2.9864895   -4.4672082   -1.4807188 
    7600     2.028365     3.040745   -4.4651043   -1.4243593 
    7610    2.0521278    3.0763681   -4.4678199   -1.3914518 
    7620    2.0473357    3.0691843    -4.474526   -1.4053417 
    7630    1.9254019    2.8863919   -4.3438202   -1.4574283 
    7640    1.9820652    2.9713364   -4.4525394    -1.481203 
    7650    1.9659958    2.9472467   -4.4234245   -1.4761778 
    7660    2.0378559    3.0549729   -4.4907424   -1.4357695 
    7670    2.0492955    3.0721223   -4.4272489   -1.3551266 
    7680    2.0557499    3.0817981   -4.3659878   -1.2841897 
    7690    2.0550697    3.0807783    -4.350402   -1.2696237 
    7700    2.0481684    3.0704326   -4.3681755    -1.297743 
    7710    2.0620133    3.0911875   -4.4485775     -1.35739 
    7720    1.9873564    2.9792685   -4.4047781   -1.4255096 
    7730    2.0319702    3.0461496   -4.4980815   -1.4519319 
    7740     2.018335     3.025709   -4.5060427   -1.4803337 
    7750     2.002937    3.0026257   -4.5147917    -1.512166 
    7760    1.9565863    2.9331407   -4.4703837    -1.537243 
    7770    1.9952393     2.991086   -4.5299291   -1.5388431 
    7780    1.9802541    2.9686215   -4.5024454   -1.5338239 
    7790    1.9731935    2.9580369   -4.4727341   -1.5146972 
    7800    1.9769729    2.9637026   -4.4151076    -1.451405 
    7810    2.0611853    3.0899464   -4.4591073   -1.3691609 
    7820    2.0505668     3.074028   -4.4106139   -1.3365859 
    7830    2.0423557    3.0617186   -4.4061609   -1.3444423 
    7840    2.0465682    3.0680337   -4.4528846   -1.3848509 
    7850    1.9584785    2.9359774   -4.3723591   -1.4363816 
    7860     1.961722    2.9408398   -4.3923999   -1.4515601 
    7870     1.955928    2.9321539   -4.3731356   -1.4409816 
    7880    2.0122054      3.01652     -4.43591     -1.41939 
    7890    2.0176348    3.0246593     -4.43804   -1.4133806 
    7900    2.0020717    3.0013284   -4.4150998   -1.4137714 
    7910    1.9979137    2.9950951   -4.4055291    -1.410434 
    7920    1.9697192    2.9528285   -4.3575643   -1.4047359 
    7930    2.0427456    3.0623032    -4.439881   -1.3775778 
    7940    2.0398848    3.0580145   -4.4108054   -1.3527909 
    7950    2.0424627    3.0618791   -4.4010718   -1.3391927 
    7960    2.0333465    3.0482129   -4.4100764   -1.3618636 
    7970    1.9964464    2.9928955   -4.4205819   -1.4276863 
    7980    2.0138011    3.0189121   -4.5062647   -1.4873526 
    7990      1.97429    2.9596806   -4.4937735   -1.5340929 
    8000    1.9474995    2.9195186   -4.4746464   -1.5551278 
    8010    2.0133278    3.0182026   -4.5640753   -1.5458727 
    8020    1.9795675    2.9675921   -4.5032735   -1.5356813 
    8030    1.9747588    2.9603834   -4.4573909   -1.4970076 
    8040    2.0252674    3.0361013   -4.4434853    -1.407384 
    8050     2.090361     3.133684   -4.4846717   -1.3509877 
    8060    2.0467828    3.0683554   -4.4355955     -1.36724 
    8070    1.9633379    2.9432622   -4.3433567   -1.4000945 
    8080    2.0568555    3.0834555   -4.5043567   -1.4209011 
    8090    1.9716498    2.9557227   -4.4231281   -1.4674054 
    8100    1.9534115    2.9283814   -4.4206996   -1.4923182 
    8110    2.0098539    3.0129949   -4.4996238   -1.4866289 
    8120    1.9974488    2.9943983   -4.4731203    -1.478722 
    8130    1.9946273    2.9901685    -4.455623   -1.4654545 
    8140     2.005082    3.0058412     -4.45351   -1.4476688 
    8150    2.0085945    3.0111068   -4.4535289   -1.4424221 
    8160    1.9991391    2.9969322   -4.4357328   -1.4388006 
    8170    2.0105138    3.0139841   -4.4467582   -1.4327741 
    8180     2.026178    3.0374665   -4.4747935    -1.437327 
    8190    2.0063311    3.0077137   -4.4664646   -1.4587509 
    8200    1.9977387    2.9948328   -4.4847257   -1.4898929 
    8210    1.9739281    2.9591381   -4.4898704   -1.5307323 
    8220    1.9370664    2.9038783   -4.4860688   -1.5821904 
    8230    1.9115875    2.8656826   -4.4870594   -1.6213768 
    8240    1.9334106    2.8983978   -4.5078325   -1.6094347 
    8250     2.021929    3.0310967    -4.536063   -1.5049662 
    8260    2.0416743    3.0606972   -4.4950746   -1.4343774 
    8270    1.9781047    2.9653992   -4.3780367   -1.4126375 
    8280     2.077758    3.1147907   -4.5045334   -1.3897427 
    8290    2.0153276    3.0212005   -4.4315795    -1.410379 
    8300    2.0062468    3.0075874   -4.4595444   -1.4519571 
    8310    1.9702067    2.9535593   -4.4541364   -1.5005771 
    8320    1.9358276    2.9020212   -4.4449299   -1.5429086 
    8330    1.9447426    2.9153857   -4.4673943   -1.5520086 
    8340    1.9777021    2.9647958   -4.4774122   -1.5126165 
    8350    2.0143448    3.0197272   -4.4295087   -1.4097816 
    8360    2.0891692    3.1318974     -4.46849   -1.3365927 
    8370    2.0020685    3.0013236   -4.3413324   -1.3400088 
    8380    2.0477945     3.069872   -4.4309925   -1.3611204 
    8390     2.032268    3.0465961   -4.4450327   -1.3984365 
    8400     2.006563    3.0080614   -4.4647195   -1.4566581 
    8410    1.9577356    2.9348637   -4.4365088   -1.5016451 
    8420    1.9346535    2.9002611   -4.4083116   -1.5080506 
    8430    1.9663332    2.9477525   -4.4274644   -1.4797119 
    8440    2.0284844     3.040924   -4.4809031   -1.4399792 
    8450    2.0191587    3.0269438   -4.4553885   -1.4284447 
    8460    1.9863504    2.9777605   -4.4101796   -1.4324192 
    8470    2.0537291    3.0787686   -4.5195311   -1.4407625 
    8480    2.0152289    3.0210525   -4.4898651   -1.4688125 
    8490    1.9967116    2.9932931   -4.4816384   -1.4883454 
    8500    2.0291087    3.0418599    -4.543081   -1.5012211 
    8510    1.9609208    2.9396386   -4.4542895   -1.5146508 
    8520    1.9827347    2.9723402   -4.4706628   -1.4983226 
    8530    2.0036143     3.003641   -4.4628022   -1.4591611 
    8540    2.0369698    3.0536446    -4.473585   -1.4199404 
    8550    2.0243973     3.034797   -4.4229002   -1.3881032 
    8560    2.0852862    3.1260762   -4.4673263   -1.3412501 
    8570    2.0409559    3.0596202   -4.3716081   -1.3119879 
    8580    2.0771154    3.1138273   -4.4274992   -1.3136719 
    8590     1.991864     2.986026   -4.3572304   -1.3712044 
    8600    1.9951594    2.9909661   -4.4355632   -1.4445971 
    8610    1.9816645    2.9707357   -4.4673025   -1.4965668 
    8620    1.9970848    2.9938526   -4.5185158   -1.5246632 
    8630    1.9565356    2.9330648   -4.4764062   -1.5433413 
    8640    1.9948532    2.9905071   -4.5269124   -1.5364053 
    8650    1.9955897    2.9916112   -4.5005399   -1.5089287 
    8660    1.9576586    2.9347483   -4.3851169   -1.4503686 
    8670    2.0639474     3.094087   -4.4492694   -1.3551823 
    8680    2.0721413    3.1063706   -4.4282058   -1.3218352 
    8690    2.0800108    3.1181678   -4.4734018    -1.355234 
    8700     2.032895    3.0475361   -4.4625148   -1.4149788 
    8710     1.973379    2.9583149   -4.4143141   -1.4559992 
    8720    1.9656667    2.9467533   -4.4138708   -1.4671175 
    8730    2.0149225    3.0205932   -4.4759595   -1.4553663 
    8740    1.9877526    2.9798626   -4.4159801   -1.4361175 
    8750     2.010912     3.014581   -4.4155022   -1.4009211 
    8760    2.0406346    3.0591385    -4.413304   -1.3541655 
    8770    2.0866684    3.1281484   -4.4521892   -1.3240408 
    8780    2.0139779    3.0191772   -4.3756053   -1.3564282 
    8790    2.0110479    3.0147848   -4.4600302   -1.4452454 
    8800    1.9565546    2.9330933   -4.4549692   -1.5218759 
    8810    1.9392618    2.9071695   -4.4456085    -1.538439 
    8820    1.9825647    2.9720853   -4.4903782   -1.5182929 
    8830    1.9763215    2.9627261   -4.4447732   -1.4820471 
    8840    2.0173943    3.0242987   -4.4606923   -1.4363935 
    8850    2.0389485    3.0566109   -4.4577888   -1.4011779 
    8860    2.0217869    3.0308837   -4.4277394   -1.3968557 
    8870    1.9876726    2.9797426   -4.3905741   -1.4108315 
    8880    2.0164769    3.0229234   -4.4573401   -1.4344167 
    8890    1.9557793    2.9319309   -4.4358549    -1.503924 
    8900    1.9377653     2.904926   -4.4660215   -1.5610956 
    8910    1.9268494    2.8885619   -4.4536712   -1.5651093 
    8920    2.0039776    3.0041855   -4.5185789   -1.5143934 
    8930    1.9791142    2.9669126   -4.4218997   -1.4549871 
    8940     1.986231    2.9775815    -4.383778   -1.4061965 
    8950    2.0499757    3.0731418   -4.4459009   -1.3727591 
    8960    2.0199036    3.0280604    -4.395585   -1.3675246 
    8970    2.0097589    3.0128524   -4.3879162   -1.3750638 
    8980    1.9992977    2.9971699   -4.3905703   -1.3934004 
    8990    1.9999197    2.9981024   -4.4121749   -1.4140725 
    9000    1.9473379    2.9192764   -4.3672327   -1.4479563 
    9010    1.9354141    2.9014014   -4.4087624   -1.5073611 
    9020     1.916002    2.8723004   -4.4367302   -1.5644299 
    9030    1.9488193    2.9214972   -4.4939426   -1.5724454 
    9040    2.0015337    3.0005219   -4.5450221   -1.5445002 
    9050    1.9644469    2.9449247   -4.4389593   -1.4940346 
    9060    1.9891908    2.9820186   -4.4134208   -1.4314022 
    9070     2.023177    3.0329676   -4.4183611   -1.3853935 
    9080    2.0372284    3.0540323   -4.4253127   -1.3712804 
    9090      2.04974    3.0727886   -4.4640162   -1.3912276 
    9100    2.0124447    3.0168787   -4.4564733   -1.4395946 
    9110    1.9713574    2.9552843   -4.4255249   -1.4702406 
    9120    1.9739503    2.9591714   -4.4306505   -1.4714792 
    9130    1.9927024    2.9872828   -4.4436504   -1.4563676 
    9140    2.0534202    3.0783056   -4.5222161   -1.4439105 
    9150    2.0140224    3.0192438   -4.4837896   -1.4645457 
    9160    1.9870792    2.9788531   -4.4701413   -1.4912882 
    9170    1.9493708    2.9223239   -4.4241672   -1.5018433 
    9180    1.9983642    2.9957706   -4.4811849   -1.4854143 
    9190    2.0187871    3.0263866   -4.4635637   -1.4371771 
    9200    2.0869472    3.1285664   -4.5081281   -1.3795618 
    9210    2.0075246    3.0095029   -4.3770471   -1.3675442 
    9220    2.0199638    3.0281508   -4.4045917   -1.3764409 
    9230    1.9913735    2.9852907   -4.3945283   -1.4092376 
    9240    2.0202549    3.0285871    -4.488205   -1.4596179 
    9250    1.9889456     2.981651    -4.515438    -1.533787 
    9260    1.9583464    2.9357794   -4.5221153   -1.5863359 
    9270    1.9189519    2.8767226   -4.4707538   -1.5940312 
    9280    2.0004324     2.998871   -4.5588075   -1.5599364 
    9290    1.9948859    2.9905562   -4.5197108   -1.5291546 
    9300    1.9898384    2.9829894   -4.4893448   -1.5063553 
    9310    1.9892187    2.9820603   -4.4669181   -1.4848578 
    9320    1.9940124    2.9892467   -4.4592201   -1.4699734 
    9330    2.0044277    3.0048603   -4.4561177   -1.4512574 
    9340    2.0358672    3.0519917   -4.4831062   -1.4311145 
    9350    2.0113127    3.0151817   -4.4423322   -1.4271505 
    9360    2.0405254    3.0589749   -4.4961684   -1.4371935 
    9370    1.9642581    2.9446416    -4.414085   -1.4694433 
    9380    1.9537756    2.9289273   -4.4329089   -1.5039817 
    9390    1.9348369     2.900536   -4.4464987   -1.5459626 
    9400    1.9609885    2.9397402   -4.5325533   -1.5928132 
    9410    1.9352081    2.9010924   -4.5291502   -1.6280578 
    9420    1.9091022    2.8619568   -4.4795462   -1.6175894 
    9430    1.9603763    2.9388224   -4.4822624   -1.5434401 
    9440    1.9870315    2.9787816   -4.4454249   -1.4666433 
    9450    2.0140591    3.0192989   -4.4363736   -1.4170746 
    9460    2.0233699    3.0332568   -4.4289609   -1.3957041 
    9470    2.0023482    3.0017429   -4.3945276   -1.3927847 
    9480    2.0059321    3.0071157   -4.4088582   -1.4017426 
    9490    1.9661288     2.947446   -4.3734227   -1.4259767 
    9500    1.9604551    2.9389406   -4.3849664   -1.4460259 
    9510    1.9926581    2.9872165   -4.4328633   -1.4456468 
    9520    2.0177761    3.0248711   -4.4654177   -1.4405466 
    9530    1.9408639    2.9095711   -4.3523986   -1.4428275 
    9540    2.0188985    3.0265537   -4.4372757    -1.410722 
    9550    2.0508948    3.0745197   -4.4420903   -1.3675706 
    9560    2.0245605    3.0350417   -4.3867044   -1.3516627 
    9570    2.0320083    3.0462067   -4.4182185   -1.3720118 
    9580    1.9896994     2.982781   -4.4137817   -1.4310007 
    9590    1.9598353    2.9380114   -4.4267628   -1.4887514 
    9600    1.9604913    2.9389947   -4.4534668   -1.5144721 
    9610    1.9459941    2.9172619     -4.42883   -1.5115681 
    9620    1.9989706    2.9966796   -4.4596711   -1.4629915 
    9630    2.0409981    3.0596835   -4.4340632   -1.3743797 
    9640    2.0167758    3.0233716   -4.3394994   -1.3161278 
    9650    2.0829494    3.1225732   -4.4265447   -1.3039716 
    9660    2.0475304    3.0694761    -4.392675    -1.323199 
    9670     2.031206     3.045004   -4.3992256   -1.3542216 
    9680    2.0345607    3.0500331   -4.4522843   -1.4022512 
    9690    2.0194958    3.0274492   -4.4873565   -1.4599074 
    9700    1.9721129    2.9564169   -4.4574738   -1.5010569 
    9710     1.981044    2.9698056   -4.4850446   -1.5152391 
    9720     1.972878    2.9575638   -4.4616129   -1.5040491 
    9730    1.9952177    2.9910535   -4.4667999   -1.4757464 
    9740    2.0466415    3.0681435   -4.5099723   -1.4418288 
    9750     2.032088    3.0463262   -4.4498763   -1.4035502 
    9760    2.0677431    3.0997773   -4.4570537   -1.3572764 
    9770      2.05431    3.0796395   -4.4135064   -1.3338668 
    9780    2.0444835    3.0649084   -4.4287585   -1.3638501 
    9790     1.964267     2.944655   -4.3802912   -1.4356362 
    9800    1.9621835    2.9415317   -4.4215528   -1.4800212 
    9810    2.0031029    3.0028744   -4.4922617   -1.4893873 
    9820     2.025442    3.0363632   -4.5271593   -1.4907961 
    9830    1.9612365     2.940112   -4.4309683   -1.4908563 
    9840    2.0189655    3.0266541   -4.4677202   -1.4410661 
    9850    2.0801771    3.1184172    -4.477754   -1.3593368 
    9860    2.0792852    3.1170801   -4.4528361    -1.335756 
    9870     2.054413    3.0797939   -4.4534322   -1.3736383 
    9880    2.0220055    3.0312115   -4.4900279   -1.4588164 
    9890    1.9376585     2.904766   -4.4131638   -1.5083979 
    9900    1.9840959    2.9743808   -4.4807662   -1.5063854 
    9910    1.9302377    2.8936412   -4.3770868   -1.4834456 
    9920    2.0466437    3.0681469   -4.4989982   -1.4308514 
    9930    2.0202371    3.0285604   -4.4380139   -1.4094535 
    9940    2.0179818    3.0251794   -4.4318975   -1.4067181 
    9950    2.0218512    3.0309802    -4.442941   -1.4119608 
    9960    2.0322729    3.0466035    -4.486243   -1.4396395 
    9970    1.9320737    2.8963936   -4.4066283   -1.5102347 
    9980    1.9881706    2.9804891   -4.5568157   -1.5763266 
    9990    1.9787319    2.9663395   -4.5847802   -1.6184406 
   10000    1.9106958    2.8643458    -4.491546   -1.6272002 
   10010    1.9336285    2.8987245   -4.4809499   -1.5822254 
   10020    1.9510965     2.924911   -4.4291227   -1.5042117 
   10030     1.990857    2.9845164    -4.442552   -1.4580357 
   10040    2.0260003    3.0372001   -4.4746564   -1.4374564 
   10050    1.9991003    2.9968741   -4.4285981   -1.4317241 
   10060    2.0316541    3.0456758   -4.4799807   -1.4343048 
   10070    2.0000849      2.99835   -4.4581816   -1.4598316 
   10080    1.9702445    2.9536159    -4.451081   -1.4974651 
   10090    1.9723018    2.9567001   -4.4789473   -1.5222472 
   10100    1.9253013    2.8862411   -4.4144589   -1.5282178 
   10110      1.96621    2.9475677   -4.4334987    -1.485931 
   10120    2.0211368    3.0299092   -4.4253127   -1.3954036 
   10130    2.0215234    3.0304888   -4.3689926   -1.3385039 
   10140    2.0456408    3.0666434   -4.4002831   -1.3336396 
   10150    2.0741988     3.109455    -4.479575   -1.3701199 
   10160    1.9577792     2.934929   -4.3658088   -1.4308797 
   10170    2.0002822    2.9986458   -4.4480836   -1.4494378 
   10180    1.9946839    2.9902533    -4.445725   -1.4554718 
   10190    1.9565371    2.9330671   -4.3902302   -1.4571631 
   10200    2.0192855    3.0271338   -4.4719779   -1.4448441 
   10210    2.0072883    3.0091487   -4.4418746    -1.432726 
   10220    2.0305714    3.0440527   -4.4478843   -1.4038316 
   10230    2.0341166    3.0493674   -4.4228816   -1.3735143 
   10240    2.0623648    3.0917146   -4.4514779   -1.3597633 
   10250    2.0136684    3.0187133   -4.3986285   -1.3799153 
   10260    2.0434397    3.0633437   -4.4910075   -1.4276638 
   10270    2.0005692     2.999076   -4.4883774   -1.4893014 
   10280    1.9628013    2.9424578   -4.4862741   -1.5438163 
   10290    1.9888869     2.981563   -4.5521124   -1.5705494 
   10300    1.9410986     2.909923   -4.4832848   -1.5733618 
   10310    1.9786578    2.9662283    -4.504794   -1.5385656 
   10320    1.9961234    2.9924113   -4.4696153    -1.477204 
   10330    2.0262322    3.0375477   -4.4545355   -1.4169877 
   10340    2.0013639    3.0002674   -4.3930881   -1.3928207 
   10350    2.0048582    3.0055057   -4.3925246   -1.3870189 
   10360    2.0155919    3.0215967   -4.4131742   -1.3915775 
   10370    1.9941918    2.9895156   -4.3948827   -1.4053671 
   10380    2.0345053    3.0499501    -4.472897   -1.4229469 
   10390    1.9888816    2.9815551   -4.4442176   -1.4626625 
   10400    1.9863895     2.977819   -4.4826292   -1.5048102 
   10410    1.9695429    2.9525642   -4.5050495   -1.5524853 
   10420      1.98024    2.9686002   -4.5840032    -1.615403 
   10430    1.9376278    2.9047198   -4.5830437   -1.6783239 
   10440    1.9347148     2.900353   -4.6054624   -1.7051095 
   10450    1.9093849    2.8623807   -4.5388433   -1.6764626 
   10460    1.9504369    2.9239222   -4.4668768   -1.5429546 
   10470    2.0363316    3.0526879   -4.5257707   -1.4730827 
   10480    2.0186257    3.0261448   -4.4851993   -1.4590545 
   10490    2.0040494    3.0042932   -4.4654146   -1.4611214 
   10500    1.9858661    2.9770344   -4.4474392   -1.4704048 
   10510    1.9792738    2.9671519   -4.4441181   -1.4769661 
   10520    2.0300834    3.0433211   -4.5126519   -1.4693308 
   10530     1.996162    2.9924691   -4.4673813   -1.4749122 
   10540     1.995846    2.9919954   -4.4764409   -1.4844455 
   10550    1.9911524    2.9849592   -4.4688625   -1.4839033 
   10560    1.9901499    2.9834563   -4.4543006   -1.4708443 
   10570    2.0073653    3.0092642    -4.445046   -1.4357819 
   10580    2.0409609    3.0596276   -4.4449878   -1.3853602 
   10590    2.0595771    3.0875354    -4.436902   -1.3493666 
   10600    2.0652973    3.0961107   -4.4507183   -1.3546076 
   10610    2.0077544    3.0098474   -4.4263677   -1.4165202 
   10620    1.9837971    2.9739328   -4.4737197   -1.4997869 
   10630    1.9583447    2.9357768   -4.4767936   -1.5410167 
   10640     1.957861    2.9350517   -4.4744465   -1.5393948 
   10650    1.9643708    2.9448107   -4.4573949   -1.5125842 
   10660     1.969137    2.9519557   -4.4251397    -1.473184 
   10670     2.000455    2.9989049   -4.4325706   -1.4336658 
   10680    2.0358419    3.0519538   -4.4656512   -1.4136974 
   10690      2.03541    3.0513063   -4.4686923    -1.417386 
   10700    1.9934239    2.9883644   -4.4214082   -1.4330438 
   10710    2.0318978     3.046041   -4.4894463   -1.4434053 
   10720    1.9670789    2.9488704   -4.4155151   -1.4666447 
   10730    2.0179825    3.0251804   -4.5033575   -1.4781771 
   10740    1.9957764     2.991891   -4.5000303   -1.5081393 
   10750    1.9551849    2.9310399   -4.5287094   -1.5976695 
   10760    1.8814495    2.8205023   -4.4700757   -1.6495734 
   10770    1.9101057    2.8634612   -4.4768101   -1.6133489 
   10780    1.9623518    2.9417839   -4.4677082   -1.5259244 
   10790    1.9850151    2.9757587    -4.438265   -1.4625063 
   10800     2.013329    3.0182044   -4.4464951   -1.4282908 
   10810    2.0150359    3.0207632   -4.4307446   -1.4099815 
   10820    2.0523279    3.0766681   -4.4841038   -1.4074357 
   10830    2.0152428    3.0210733   -4.4626866   -1.4416133 
   10840     1.972203    2.9565519   -4.4558045   -1.4992526 
   10850    1.9629249     2.942643   -4.4944753   -1.5518323 
   10860    1.9521774    2.9265314   -4.4995845   -1.5730531 
   10870    1.9339867    2.8992615   -4.4554293   -1.5561678 
   10880    2.0308601    3.0444855   -4.5382924   -1.4938069 
   10890    1.9733789    2.9583148   -4.3806901   -1.4223753 
   10900    1.9588674    2.9365604   -4.3097588   -1.3731984 
   10910    2.0825419    3.1219623   -4.4745783    -1.352616 
   10920    2.0428867    3.0625147   -4.4463665   -1.3838518 
   10930    1.9752769      2.96116   -4.4025018   -1.4413417 
   10940    1.9729998    2.9577465   -4.4334313   -1.4756848 
   10950    2.0011825    2.9999955   -4.4928525    -1.492857 
   10960    2.0115563    3.0155469   -4.5296318   -1.5140849 
   10970    1.9479148    2.9201413   -4.4539101   -1.5337688 
   10980     1.926428    2.8879302   -4.4063929   -1.5184628 
   10990    2.0175792     3.024576    -4.463916     -1.43934 
   11000    2.0772809    3.1140754   -4.4859023   -1.3718268 
   11010    2.0319985    3.0461921   -4.4184407   -1.3722486 
   11020    1.9879157     2.980107   -4.3772663   -1.3971593 
   11030    2.0276684    3.0397008   -4.4653634   -1.4256626 
   11040    1.9619805    2.9412274   -4.3975088   -1.4562815 
   11050    2.0032245    3.0030567   -4.4597831   -1.4567264 
   11060    2.0156484    3.0216814   -4.4763976   -1.4547162 
   11070    2.0184267    3.0258464   -4.4913263   -1.4654799 
   11080    1.9750614     2.960837   -4.4673323   -1.5064953 
   11090    1.9661792    2.9475217   -4.5039777    -1.556456 
   11100    1.9735396    2.9585556   -4.5483431   -1.5897875 
   11110    1.9488694    2.9215723    -4.516296   -1.5947238 
   11120    1.9783679    2.9657939   -4.5248773   -1.5590834 
   11130    2.0029742    3.0026814   -4.5008083   -1.4981269 
   11140    2.0010352    2.9997746   -4.4442302   -1.4444556 
   11150    2.0335254    3.0484811   -4.4519032   -1.4034221 
   11160    2.0433518    3.0632119   -4.4541399    -1.390928 
   11170    2.0003964    2.9988169   -4.4066323   -1.4078154 
   11180    2.0224122    3.0318212   -4.4697167   -1.4378955 
   11190    1.9947594    2.9903665   -4.4814289   -1.4910624 
   11200    1.9529759    2.9277284   -4.4959364   -1.5682079 
   11210    1.9229894    2.8827752   -4.5196599   -1.6368847 
   11220    1.9321424    2.8964966   -4.5509163   -1.6544197 
   11230    1.9221419    2.8815048   -4.4937134   -1.6122086 
   11240    1.9992123     2.997042   -4.4922423   -1.4952004 
   11250    2.0042304    3.0045646   -4.4586503   -1.4540856 
   11260    1.9702557    2.9536327   -4.3896088   -1.4359761 
   11270    2.0324257    3.0468325     -4.45873   -1.4118975 
   11280    2.0357902    3.0518762   -4.4543153   -1.4024391 
   11290    1.9989707    2.9966798   -4.4036107   -1.4069309 
   11300    2.0098913    3.0130509   -4.4306473   -1.4175964 
   11310    2.0349895    3.0506759   -4.4956073   -1.4449314 
   11320    1.9828577    2.9725245   -4.4671259   -1.4946014 
   11330    1.9233428    2.8833051   -4.4168793   -1.5335741 
   11340    1.9851897    2.9760205   -4.5090152   -1.5329947 
   11350    1.9373276    2.9042699   -4.4152138   -1.5109439 
   11360    2.0175875    3.0245884   -4.4676794    -1.443091 
   11370    2.0437943    3.0638753   -4.4380791   -1.3742037 
   11380    2.0103544    3.0137451   -4.3629514   -1.3492062 
   11390     2.075703      3.11171   -4.4644388   -1.3527288 
   11400    1.9882159     2.980557   -4.3663388   -1.3857818 
   11410    2.0620033    3.0911727   -4.4979956   -1.4068229 
   11420    1.9918371    2.9859857   -4.4262805   -1.4402947 
   11430    2.0269708     3.038655   -4.4972006   -1.4585456 
   11440    1.9582915    2.9356971   -4.4110477   -1.4753507 
   11450    2.0037943    3.0039108   -4.4720855   -1.4681747 
   11460    2.0095055    3.0124726   -4.4608861   -1.4484135 
   11470     2.010292    3.0136516   -4.4323589   -1.4187073 
   11480    2.0419846    3.0611623   -4.4505196   -1.3893573 
   11490    2.0276178    3.0396249   -4.4175307   -1.3779059 
   11500    2.0291049    3.0418542   -4.4302227   -1.3883686 
   11510    2.0104501    3.0138886   -4.4545917   -1.4407031 
   11520    1.9597922    2.9379467   -4.4469405   -1.5089938 
   11530    1.9280161    2.8903109    -4.426777   -1.5364662 
   11540    2.0072824    3.0091399   -4.5314838   -1.5223439 
   11550    1.9616258    2.9406955   -4.4373408   -1.4966453 
   11560    2.0260908    3.0373357   -4.4818681   -1.4445324 
   11570    2.0048125    3.0054372   -4.3961821    -1.390745 
   11580    2.0555558    3.0815071   -4.4241424   -1.3426354 
   11590    2.0315048     3.045452    -4.374686    -1.329234 
   11600    2.0267134    3.0382692   -4.3926644   -1.3543953 
   11610    1.9881413    2.9804453   -4.4223292   -1.4418839 
   11620    1.9320978    2.8964297   -4.4438479   -1.5474182 
   11630    1.9738863    2.9590754   -4.5240591   -1.5649837 
   11640    1.9898426    2.9829957   -4.5377539   -1.5547582 
   11650    1.9651275     2.945945   -4.4801214   -1.5341764 
   11660    1.9984957    2.9959676   -4.4919141   -1.4959465 
   11670    1.9966175    2.9931521   -4.4409915   -1.4478395 
   11680    1.9955043    2.9914831   -4.3890257   -1.3975426 
   11690    2.0512618    3.0750699   -4.4335056   -1.3584357 
   11700    2.0359798    3.0521605   -4.4062293   -1.3540687 
   11710     2.035349    3.0512149    -4.425085   -1.3738701 
   11720    2.0107251    3.0143008   -4.4244765   -1.4101757 
   11730     2.046606    3.0680903   -4.5193182   -1.4512279 
   11740     1.959236     2.937113   -4.4233755   -1.4862626 
   11750     2.008161     3.010457   -4.4971148   -1.4866577 
   11760    1.9694464    2.9524195   -4.4385692   -1.4861497 
   11770    1.9423644    2.9118206   -4.3834869   -1.4716663 
   11780    2.0064472    3.0078878   -4.4429954   -1.4351076 
   11790    2.0684164    3.1007865   -4.5072831   -1.4064966 
   11800    2.0426775     3.062201   -4.4888479   -1.4266468 
   11810    2.0154092    3.0213228   -4.5152482   -1.4939254 
   11820     1.959552    2.9375867    -4.495426   -1.5578393 
   11830     1.959539    2.9375672   -4.5126634   -1.5750962 
   11840    1.9881871    2.9805139   -4.5474537   -1.5669398 
   11850    1.9329193    2.8976614   -4.4473025   -1.5496411 
   11860    1.9994847    2.9974503   -4.5023501   -1.5048998 
   11870    1.9858007    2.9769365   -4.4402128   -1.4632764 
   11880    2.0285529    3.0410267   -4.4819713   -1.4409445 
   11890     2.002959    3.0026586   -4.4479619   -1.4453033 
   11900    1.9823919    2.9718263   -4.4226772   -1.4508509 
   11910    1.9777018    2.9647953   -4.4076047   -1.4428094 
   11920    2.0202526    3.0285836   -4.4530963   -1.4245126 
   11930    2.0352149    3.0510138   -4.4715773   -1.4205635 
   11940    2.0337722     3.048851   -4.5082124   -1.4593614 
   11950    1.9552228    2.9310968   -4.4794734   -1.5483766 
   11960    1.9388848    2.9066043   -4.5066883    -1.600084 
   11970    1.9317043    2.8958399   -4.4935153   -1.5976753 
   11980    1.9886377    2.9811894   -4.5343696   -1.5531802 
   11990    2.0072476    3.0090877   -4.5163793   -1.5072916 
   12000    1.9765172    2.9630194   -4.4467587   -1.4837393 
   12010     2.016069     3.022312   -4.4892227   -1.4669107 
   12020    2.0015683    3.0005738   -4.4649417   -1.4643679 
   12030    2.0191443    3.0269221   -4.4944435   -1.4675213 
   12040    2.0032149    3.0030422   -4.4819273   -1.4788851 
   12050    1.9589639    2.9367051   -4.4187888   -1.4820837 
   12060    2.0220082    3.0312156   -4.4764207   -1.4452051 
   12070     2.040266     3.058586   -4.4256996   -1.3671136 
   12080    2.0682877    3.1005936   -4.4040549   -1.3034613 
   12090    2.0672587     3.099051   -4.4002404   -1.3011894 
   12100    2.0355325    3.0514899   -4.4033893   -1.3518994 
   12110    2.0108997    3.0145626   -4.4354547   -1.4208921 
   12120    2.0254454    3.0363682   -4.5107687   -1.4744005 
   12130    1.9735444    2.9585629   -4.4632207   -1.5046578 
   12140    1.9788265    2.9664813     -4.47309   -1.5066087 
   12150    1.9719404    2.9561583   -4.4494291   -1.4932707 
   12160    1.9884484    2.9809056   -4.4456131   -1.4647075 
   12170    2.0217762    3.0308677   -4.4518905   -1.4210227 
   12180    1.9955228    2.9915109   -4.3759831   -1.3844722 
   12190    2.0490238    3.0717149   -4.4294074   -1.3576925 
   12200     2.044244    3.0645494    -4.416036   -1.3514866 
   12210    2.0396096    3.0576019   -4.4437717   -1.3861698 
   12220    1.9730771    2.9578624   -4.4439857   -1.4861234 
   12230    1.9398775    2.9080925   -4.4535481   -1.5454557 
   12240    1.9577802    2.9349306   -4.4830877   -1.5481572 
   12250    1.9563589    2.9327999   -4.4536682   -1.5208684 
   12260    1.9939388    2.9891363   -4.4549978   -1.4658615 
   12270    1.9998651    2.9980205   -4.4078593   -1.4098388 
   12280    2.0416223    3.0606192   -4.4377659   -1.3771467 
   12290    2.0121158    3.0163857   -4.3949849   -1.3785991 
   12300    2.0232811    3.0331238   -4.4243171   -1.3911934 
   12310    1.9834016    2.9733399   -4.3897783   -1.4164384 
   12320    1.9811603    2.9699799   -4.4065868   -1.4366069 
   12330    1.9880106    2.9802493   -4.4334404    -1.453191 
   12340    1.9700458     2.953318   -4.4353664   -1.4820484 
   12350    1.9378863    2.9051074   -4.4289813   -1.5238739 
   12360    1.9633858     2.943334   -4.4723243   -1.5289903 
   12370    2.0137025    3.0187643   -4.5192272   -1.5004629 
   12380    2.0077606    3.0098568   -4.4757199   -1.4658632 
   12390    2.0591737    3.0869307    -4.525488   -1.4385573 
   12400    2.0373628    3.0542338   -4.5110443   -1.4568105 
   12410     1.941518    2.9105517   -4.4193762   -1.5088245 
   12420    1.9842067    2.9745468   -4.5102344   -1.5356876 
   12430    1.9481643    2.9205153   -4.4632075   -1.5426922 
   12440    1.9659745    2.9472147    -4.449635   -1.5024203 
   12450    2.0163606    3.0227492   -4.4295206   -1.4067714 
   12460    1.9947163    2.9903019    -4.332824   -1.3425222 
   12470     2.035576    3.0515551   -4.3662382   -1.3146831 
   12480    2.0521922    3.0764647   -4.3965493   -1.3200846 
   12490    2.0092554    3.0120976   -4.3752292   -1.3631317 
   12500    2.0277908    3.0398843   -4.4513283    -1.411444 
   12510    2.0061123    3.0073858   -4.4636106   -1.4562247 
   12520    1.9953786    2.9912948   -4.4822488    -1.490954 
   12530    2.0072229    3.0090508   -4.5209396   -1.5118888 
   12540    1.9657717    2.9469108   -4.4650961   -1.5181854 
   12550    1.9822995    2.9716878   -4.4804722   -1.5087844 
   12560    1.9810944    2.9698812   -4.4642668   -1.4943856 
   12570    1.9888569     2.981518   -4.4502453   -1.4687274 
   12580    2.0417864    3.0608652   -4.5010745   -1.4402093 
   12590    1.9816639    2.9707348   -4.4004235   -1.4296887 
[...]
   16880    1.9930885    2.9878616   -4.5626553   -1.5747937 
   16890    1.8934777     2.838534   -4.4704009   -1.6318669 
   16900    1.8744613    2.8100262   -4.4547446   -1.6447184 
   16910    1.9528879    2.9275965   -4.5014231   -1.5738266 
   16920    2.0354028    3.0512955   -4.5400216   -1.4887261 
   16930    1.9893096    2.9821967   -4.4350217   -1.4528251 
   16940    1.9553407    2.9312735   -4.3541618   -1.4228884 
   16950    2.0031884    3.0030025   -4.3794624   -1.3764599 
   16960    2.0585309    3.0859671   -4.4260288   -1.3400617 
   16970    2.0415614    3.0605279     -4.40321   -1.3426821 
   16980    2.0012269     3.000062    -4.385296    -1.385234 
   16990    1.9938256    2.9889666   -4.4392017   -1.4502351 
   17000    1.9768662    2.9635425   -4.4748307   -1.5112881 
   17010    1.9238766    2.8841053   -4.4150239   -1.5309186 
   17020    1.9863515    2.9777621   -4.4941718   -1.5164097 
   17030    1.9740138    2.9592666   -4.4606809   -1.5014143 
   17040    1.9824009    2.9718398   -4.4538697   -1.4820299 
   17050    1.9954422      2.99139   -4.4452281   -1.4538381 
   17060    1.9943333    2.9897278    -4.418449   -1.4287212 
   17070    1.9818859    2.9710677   -4.3692183   -1.3981505 
   17080    2.0990648    3.1467319   -4.5135055   -1.3667736 
   17090    1.9940827    2.9893521   -4.3834658   -1.3941138 
   17100    2.0258328     3.036949   -4.5017866   -1.4648376 
   17110    1.9361782    2.9025467   -4.4732837    -1.570737 
   17120    1.9331985    2.8980798   -4.4955359   -1.5974561 
   17130    1.9534922    2.9285024   -4.5037666   -1.5752641 
   17140     1.927197    2.8890829   -4.4192376   -1.5301547 
   17150    1.9908345    2.9844827   -4.4489136   -1.4644309 
   17160    1.9930699    2.9878337   -4.4098961   -1.4220624 
   17170    2.0172681    3.0241095    -4.419597   -1.3954874 
   17180    2.0227925    3.0323912   -4.4159761   -1.3835849 
   17190    2.0293852    3.0422744   -4.4290197   -1.3867452 
   17200    2.0058248    3.0069548   -4.4178913   -1.4109365 
   17210    1.9725259     2.957036   -4.4234464   -1.4664104 
   17220    1.9670218    2.9487848   -4.4856427   -1.5368579 
   17230    1.9112481    2.8651737   -4.4547664   -1.5895927 
   17240    1.9053457    2.8563254   -4.4381272   -1.5818018 
   17250    1.9562303     2.932607   -4.4384327   -1.5058257 
   17260    1.9871522    2.9789625   -4.4256243   -1.4466618 
   17270    1.9761178    2.9624207   -4.3858885   -1.4234678 
   17280    2.0266821    3.0382222    -4.439786   -1.4015638 
   17290    1.9831464    2.9729573   -4.3591875   -1.3862302 
   17300    2.0255095    3.0364644   -4.4075229   -1.3710585 
   17310    2.0351684    3.0509441   -4.4228045   -1.3718604 
   17320    1.9969504    2.9936511   -4.3855905   -1.3919394 
   17330    1.9889063    2.9815921   -4.4002448   -1.4186527 
   17340     1.999069     2.996827   -4.4505721   -1.4537451 
   17350    1.9921241    2.9864159   -4.4919559   -1.5055399 
   17360    1.9366378    2.9032358   -4.4656077   -1.5623719 
   17370    1.9659616    2.9471953    -4.523097   -1.5759016 
   17380    1.9540473    2.9293345   -4.4855582   -1.5562237 
   17390    1.9539022     2.929117   -4.4025866   -1.4734696 
   17400     2.052195    3.0764689   -4.4589647   -1.3824958 
   17410    2.0580634    3.0852662   -4.4522207   -1.3669545 
   17420    2.0272078    3.0390103   -4.4168382   -1.3778279 
   17430    1.9437722    2.9139311   -4.3124493   -1.3985182 
   17440    2.0367594    3.0533292   -4.4530265   -1.3996973 
   17450    2.0226181    3.0321298   -4.4578578   -1.4257281 
   17460    1.9899063    2.9830912   -4.4671479   -1.4840566 
   17470     1.965303     2.946208   -4.4777571   -1.5315491 
   17480    1.9474182    2.9193967   -4.4724644   -1.5530677 
   17490    1.9697374    2.9528558   -4.4928852   -1.5400294 
   17500    2.0079498    3.0101404   -4.4868608   -1.4767205 
   17510     2.033964    3.0491386   -4.4264688   -1.3773302 
   17520    2.0281526    3.0404267   -4.3696496   -1.3292229 
   17530    2.0589076    3.0865318   -4.4160231   -1.3294914 
   17540     2.009846     3.012983   -4.3753091   -1.3623261 
   17550    1.9918985    2.9860776   -4.3813696   -1.3952919 
   17560    1.9603139    2.9387289   -4.3521602   -1.4134313 
   17570    2.0027584    3.0023579   -4.4150699    -1.412712 
   17580    2.0192641    3.0271018   -4.4374068   -1.4103049 
   17590    2.0035022     3.003473   -4.4182811   -1.4148082 
   17600    1.9940027    2.9892322   -4.4201502    -1.430918 
   17610    1.9874327    2.9793829   -4.4391105   -1.4597276 
   17620    1.9598398    2.9380181   -4.4267719   -1.4887538 
   17630    1.9512363    2.9251205   -4.4188984   -1.4937779 
   17640    1.9819739    2.9711997   -4.4278877    -1.456688 
   17650     2.045624    3.0666182   -4.4721402    -1.405522 
   17660    2.0398684    3.0579899   -4.4412298   -1.3832399 
   17670    2.0306456    3.0441639   -4.4319738   -1.3878099 
   17680    2.0452802    3.0661028   -4.4949106   -1.4288078 
   17690    1.9908165    2.9844556   -4.5037938   -1.5193382 
   17700    1.9498141    2.9229884     -4.50154   -1.5785515 
   17710    1.9632052    2.9430633   -4.5235305   -1.5804672 
   17720    1.9870525    2.9788129   -4.5405159   -1.5617029 
   17730    1.9525204    2.9270456   -4.4600178   -1.5329723 
   17740    2.0057971    3.0069133   -4.4862645   -1.4793512 
   17750    1.9965107     2.992992   -4.4334711   -1.4404792 
   17760    2.0579907    3.0851573   -4.5096965   -1.4245392 
   17770     2.017098    3.0238546   -4.4606092   -1.4367546 
   17780    1.9961397    2.9924357   -4.4465122   -1.4540765 
   17790    1.9829485    2.9726607    -4.441565   -1.4689044 
   17800     2.011093    3.0148524   -4.4900577   -1.4752053 
   17810    1.9831021     2.972891   -4.4509787   -1.4780877 
   17820    2.0034408    3.0033809   -4.4756142   -1.4722334 
   17830    2.0099815    3.0131861   -4.4805693   -1.4673831 
   17840    1.9909186    2.9846088   -4.4504319   -1.4658231 
   17850    2.0311508    3.0449213   -4.5130063    -1.468085 
   17860    1.9393808    2.9073479   -4.3866847   -1.4793369 
   17870    2.0193526    3.0272345   -4.4969268   -1.4696923 
   17880    1.9819053    2.9710968    -4.431415   -1.4603183 
   17890    2.0034619    3.0034126    -4.424061   -1.4206485 
   17900    2.0453896    3.0662668   -4.4047714   -1.3385046 
   17910    2.0857161    3.1267208   -4.4102585   -1.2835378 
   17920     2.063379    3.0932349   -4.3913532   -1.2981183 
   17930    2.0671176    3.0988395   -4.4545902   -1.3557507 
   17940    1.9913127    2.9851996   -4.4194483   -1.4342487 
   17950    2.0027753    3.0023832   -4.4777678   -1.4753846 
   17960    1.9653473    2.9462746   -4.4415144   -1.4952398 
   17970     2.012231    3.0165584    -4.511823   -1.4952646 
   17980    1.9370921    2.9039168   -4.3926374   -1.4887207 
   17990    2.0194251    3.0273431   -4.4732394   -1.4458962 
   18000    2.0026116    3.0021378   -4.3902843   -1.3881465 
   18010    2.0740995    3.1093062   -4.4431253   -1.3338191 
   18020    2.0803101    3.1186165   -4.4462614   -1.3276449 
   18030    2.0133009    3.0181622   -4.4050708   -1.3869086 
   18040    2.0024874    3.0019516   -4.4693931   -1.4674415 
   18050    2.0041524    3.0044477   -4.5174348   -1.5129871 
   18060    1.9772376    2.9640994   -4.4855348   -1.5214354 
   18070    1.9303233    2.8937696   -4.4001154   -1.5063459 
   18080     2.035197     3.050987   -4.5142103   -1.4632233 
   18090    1.9969263    2.9936149   -4.4201209   -1.4265061 
   18100    2.0647256    3.0952536    -4.496846   -1.4015923 
   18110    2.0041535    3.0044493   -4.4260297   -1.4215805 
   18120    2.0232944    3.0331437    -4.495613   -1.4624693 
   18130    1.9712416    2.9551107   -4.4870518   -1.5319412 
   18140    1.9347714    2.9004378   -4.4810594   -1.5806216 
   18150    1.9415861    2.9106538   -4.4923576   -1.5817038 
   18160    1.9528647    2.9275617   -4.4779574   -1.5503957 
   18170    1.9711907    2.9550344   -4.4579223   -1.5028879 
   18180    1.9515874    2.9256469   -4.3919087   -1.4662618 
   18190    1.9841565    2.9744716   -4.4037467   -1.4292751 
   18200    2.0020004    3.0012216   -4.4009596    -1.399738 
   18210    2.0061169    3.0073926   -4.3866511   -1.3792585 
   18220    2.0404181     3.058814    -4.422581   -1.3637669 
   18230    1.9825004    2.9719889   -4.3459471   -1.3739582 
   18240    2.0267768    3.0383642   -4.4334991   -1.3951349 
   18250    1.9937011      2.98878   -4.4378057   -1.4490257 
   18260     1.994271    2.9896344   -4.5179207   -1.5282864 
   18270    1.9425743    2.9121352    -4.488458   -1.5763228 
   18280    1.9680534    2.9503312   -4.5236692    -1.573338 
   18290    1.9365671    2.9031298    -4.447922   -1.5447922 
   18300    1.9619952    2.9412494   -4.4292105   -1.4879611 
   18310    2.0042236    3.0045543   -4.4481055   -1.4435512 
   18320    1.9876321    2.9796818   -4.4058608   -1.4261789 
   18330     2.007844    3.0099818   -4.4208831   -1.4109013 
   18340    1.9794151    2.9673638   -4.3692597    -1.401896 
   18350    2.0349644    3.0506383   -4.4469806   -1.3963422 
   18360    2.0210573      3.02979    -4.444391    -1.414601 
   18370    2.0070503    3.0087919   -4.4771229    -1.468331 
   18380    1.9586301    2.9362047   -4.4842196   -1.5480149 
   18390     1.921227    2.8801332   -4.4692524   -1.5891192 
   18400    1.9649793    2.9457229   -4.5247407   -1.5790178 
   18410    1.9583943    2.9358512   -4.4792375   -1.5433863 
   18420    1.9708493    2.9545226   -4.4538662   -1.4993436 
   18430    2.0217238    3.0307892    -4.497526   -1.4667368 
   18440    2.0132582    3.0180982   -4.4759036   -1.4578054 
   18450    2.0004973    2.9989683   -4.4567971   -1.4578288 
   18460    2.0053663    3.0062675   -4.4653144    -1.459047 
   18470    1.9902942    2.9836726   -4.4406464   -1.4569738 
   18480    2.0359219    3.0520736   -4.4991636     -1.44709 
   18490    1.9702397    2.9536087     -4.40882   -1.4552112 
   18500    2.0024602    3.0019108   -4.4748348    -1.472924 
   18510    1.9791364    2.9669459   -4.4601674   -1.4932215 
   18520     1.961284    2.9401832   -4.4359393   -1.4957562 
   18530    2.0145934    3.0200999   -4.4935636   -1.4734637 
   18540    1.9965777    2.9930924   -4.4321114    -1.439019 
   18550    2.0467088    3.0682444   -4.4678886   -1.3996442 
   18560    2.0254292     3.036344   -4.4120285   -1.3756845 
   18570    2.0599368    3.0880747   -4.4589968   -1.3709221 
   18580    2.0069419    3.0086295   -4.4233457   -1.4147162 
   18590    1.9843584    2.9747743   -4.4653271   -1.4905528 
   18600    1.9083513    2.8608312   -4.4099848   -1.5491536 
   18610    1.9942488    2.9896011   -4.5382694   -1.5486683 
   18620    1.9441294    2.9144666   -4.4440376   -1.5295711 
   18630    2.0181431    3.0254213   -4.5163787   -1.4909574 
   18640    1.9860483    2.9773075    -4.441493   -1.4641855 
   18650    2.0200825    3.0283286    -4.473364   -1.4450353 
   18660    2.0286617    3.0411898   -4.4842345   -1.4430447 
   18670    1.9823814    2.9718106   -4.4214636    -1.449653 
   18680    2.0253516    3.0362276   -4.4849051   -1.4486776 
   18690    1.9786115    2.9661591   -4.4230105   -1.4568514 
   18700    2.0273142    3.0391698   -4.4992844   -1.4601146 
   18710    1.9884388    2.9808912   -4.4503311     -1.46944 
   18720    1.9771017    2.9638956   -4.4405952   -1.4766996 
   18730    1.9864499    2.9779096   -4.4511012   -1.4731916 
   18740    1.9845152    2.9750092   -4.4246873    -1.449678 
   18750    2.0178028    3.0249111   -4.4269046   -1.4019935 
   18760    2.0599279    3.0880614   -4.4530132   -1.3649518 
   18770    2.0426172    3.0621107   -4.4301116    -1.368001 
   18780    2.0245543    3.0350323   -4.4370477   -1.4020154 
   18790    2.0107904    3.0143987   -4.4762635   -1.4618648 
   18800    1.9596169     2.937684   -4.4585593   -1.5208754 
   18810    1.9535279     2.928556   -4.4769708   -1.5484148 
   18820    1.9761098    2.9624087    -4.502804   -1.5403953 
   18830    1.9551296     2.930957   -4.4378452   -1.5068883 
   18840    2.0035514    3.0035467    -4.457424   -1.4538773 
   18850    2.0183983    3.0258038   -4.4491937   -1.4233899 
   18860    1.9985144    2.9959957   -4.4148645   -1.4188688 
   18870    2.0021896    3.0015052   -4.4191593   -1.4176541 
   18880    2.0320454    3.0462623   -4.4661719   -1.4199096 
   18890    1.9766936    2.9632839   -4.3992671   -1.4359832 
   18900     2.007208    3.0090283   -4.4656599   -1.4566316 
   18910    1.9883392    2.9807418   -4.4744029   -1.4936611 
   18920    1.9396886    2.9078092   -4.4382572    -1.530448 
   18930    1.9967436     2.993341   -4.5413498   -1.5480088 
   18940    1.9700287    2.9532925   -4.5130351   -1.5597426 
   18950    1.9533163    2.9282386   -4.4796479   -1.5514092 
   18960    1.9546058    2.9301719    -4.421055   -1.4908831 
   18970    2.0211797    3.0299735   -4.4350972   -1.4051237 
   18980    2.0565932    3.0830622   -4.4507799   -1.3677177 
   18990    2.0024104    3.0018362   -4.3717749   -1.3699386 
   19000    2.0496981    3.0727257   -4.4618892   -1.3891635 
   19010    2.0101788    3.0134819   -4.4627477   -1.4492658 
   19020    1.9902462    2.9836007   -4.4968154   -1.5132147 
   19030    1.9675066    2.9495116   -4.4940792   -1.5445676 
   19040    1.9772311    2.9640897   -4.5041013   -1.5400116 
   19050    2.0072419    3.0090791   -4.5277812   -1.5187021 
   19060    2.0109835    3.0146883    -4.528025   -1.5133368 
   19070    1.9257752    2.8869514   -4.3917871   -1.5048357 
   19080    2.0298377    3.0429528   -4.5037985   -1.4608458 
   19090    2.0246285    3.0351436   -4.4790761   -1.4439325 
   19100    2.0035019    3.0034724   -4.4578235   -1.4543511 
   19110    1.9739428    2.9591602   -4.4216703   -1.4625101 
   19120    2.0061699    3.0074721   -4.4659672   -1.4584952 
   19130    1.9777442    2.9648588   -4.4176305   -1.4527717 
   19140    1.9946627    2.9902215   -4.4361167   -1.4458951 
   19150    1.9925842    2.9871056    -4.425008   -1.4379024 
   19160    2.0044038    3.0048245    -4.421468   -1.4166434 
   19170    2.0354431    3.0513559   -4.4257281   -1.3743722 
   19180    2.0426563    3.0621693   -4.3891526   -1.3269833 
   19190    2.0586714    3.0861777    -4.384776   -1.2985984 
   19200    2.0563089    3.0826361   -4.3903108   -1.3076748 
   19210    2.0238504    3.0339771    -4.409149   -1.3751718 
   19220     1.962492     2.941994   -4.4024184   -1.4604244 
   19230    1.9632046    2.9430624   -4.4284538   -1.4853914 
   19240    1.9651386    2.9459617   -4.4279224   -1.4819607 
   19250    2.0730384    3.1077154   -4.5797725   -1.4720571 
   19260    1.9917443    2.9858465    -4.479027   -1.4931805 
   19270    1.9646956    2.9452975   -4.4623137   -1.5170162 
   19280    1.9451508    2.9159977   -4.4514817    -1.535484 
   19290    1.9294607    2.8924764   -4.4330179   -1.5405415 
   19300    1.9819464    2.9711585   -4.4729222   -1.5017637 
   19310    2.0280189    3.0402262    -4.472906   -1.4326798 
   19320    1.9972081    2.9940374   -4.3748429   -1.3808055 
   19330    2.0906028    3.1340464    -4.481246   -1.3471996 
   19340     2.027963    3.0401424   -4.4054198   -1.3652775 
   19350    2.0124582     3.016899    -4.437436    -1.420537 
   19360    2.0026559    3.0022042   -4.4844556   -1.4822513 
   19370    1.9686385    2.9512084   -4.4730382   -1.5218298 
   19380    1.9601081    2.9384203     -4.46255   -1.5241298 
   19390    1.9859537    2.9771658   -4.4769279   -1.4997621 
   19400    1.9726607    2.9572381   -4.4315122   -1.4742741 
   19410    1.9998145    2.9979447   -4.4458209   -1.4478762 
   19420    1.9989454    2.9966418   -4.4284177   -1.4317759 
   19430    2.0081616    3.0104579   -4.4340668   -1.4236089 
   19440    1.9919134    2.9861001   -4.4055314   -1.4194313 
   19450    2.0241732    3.0344611     -4.45029   -1.4158289 
   19460    1.9996489    2.9976964    -4.431994   -1.4342976 
   19470    1.9965763    2.9930903   -4.4701979   -1.4771076 
   19480    1.9151822    2.8710714   -4.3987687   -1.5276973 
   19490    2.0262291    3.0375431   -4.5846137   -1.5470706 
   19500     1.953254    2.9281452   -4.4988941   -1.5707488 
   19510    1.9050683    2.8559096   -4.4230598   -1.5671501 
   19520    2.0104386    3.0138714   -4.5192514   -1.5053801 
   19530     2.008206    3.0105244   -4.4539979   -1.4434735 
   19540    2.0604105    3.0887849   -4.4978365   -1.4090516 
   19550    2.0396548    3.0576697   -4.4751044   -1.4174347 
   19560    2.0017511    3.0008479   -4.4535308   -1.4526829 
   19570    1.9855232    2.9765204   -4.4566743    -1.480154 
   19580    1.9855857    2.9766142   -4.4779703   -1.5013561 
   19590    1.9826237    2.9721737   -4.4869916   -1.5148179 
   19600    1.9311465    2.8950037    -4.406967   -1.5119634 
   19610     2.023898    3.0340484   -4.4636716   -1.4296231 
   19620    2.0759518    3.1120829   -4.4240069    -1.311924 
   19630    2.0718295    3.1059032   -4.3979204   -1.2920172 
   19640    2.0633576    3.0932029   -4.4185681   -1.3253652 
   19650    2.0277078    3.0397599   -4.4383394   -1.3985796 
   19660    1.9573492    2.9342845   -4.3927249   -1.4584405 
   19670    1.9586393    2.9362184   -4.4118725   -1.4756541 
   19680     1.998517    2.9959996   -4.4610396     -1.46504 
   19690    2.0169995    3.0237069   -4.4713655   -1.4476587 
   19700    1.9985038    2.9959797   -4.4316139   -1.4356342 
   19710    2.0362027    3.0524946   -4.4753504   -1.4228558 
   19720    2.0087313    3.0113119   -4.4285702   -1.4172583 
   19730    1.9853876    2.9763171   -4.3925258   -1.4162087 
   19740    1.9933015     2.988181   -4.3970607   -1.4088796 
   19750    2.0623023    3.0916208   -4.4916686   -1.4000477 
   19760    2.0143862    3.0197893   -4.4537134   -1.4339241 
   19770    1.9901517     2.983459   -4.4788348   -1.4953758 
   19780    1.9696838    2.9527753   -4.4942574   -1.5414821 
   19790    1.9725675    2.9570983    -4.520599   -1.5635007 
   19800     1.947639    2.9197277    -4.483566   -1.5638382 
   19810    2.0049124     3.005587   -4.5374043   -1.5318173 
   19820    2.0007489    2.9993455    -4.479269   -1.4799235 
   19830    2.0516314     3.075624   -4.4738974   -1.3982734 
   19840    2.0729088    3.1075212   -4.4506397   -1.3431185 
   19850     2.052044    3.0762426   -4.4225093   -1.3462667 
   19860    2.0537204    3.0787557   -4.4702649   -1.3915093 
   19870    1.9673971    2.9493474    -4.405051   -1.4557036 
   19880    2.0132008    3.0180123   -4.5109275   -1.4929153 
   19890    1.9767009    2.9632948   -4.4742469   -1.5109521 
   19900    1.9575156    2.9345339    -4.438308   -1.5037741 
   19910    2.0085903    3.0111005   -4.4891397   -1.4780392 
   19920    2.0189893    3.0266899   -4.4867438   -1.4600539 
   19930    1.9783234     2.965727   -4.4152304   -1.4495034 
   19940    1.9912591    2.9851191   -4.4100413   -1.4249222 
   19950    2.0596113    3.0875867   -4.4746939   -1.3871072 
   19960    2.0139278    3.0191021   -4.3882722   -1.3691701 
   19970    2.0365257    3.0529788   -4.4206424   -1.3676635 
   19980    1.9909178    2.9846076   -4.3738395   -1.3892319 
   19990    2.0525338    3.0769768   -4.4958024   -1.4188256 
   20000    1.9943444    2.9897444   -4.4771292   -1.4873848 
Loop time of 103.273 on 1 procs for 20000 steps with 1688 atoms

Pair  time (%) = 24.8589 (24.0711)
Neigh time (%) = 3.18721 (3.08621)
Comm  time (%) = 0.693269 (0.671298)
Outpt time (%) = 73.4961 (71.1669)
Other time (%) = 1.03735 (1.00447)

Nlocal:    1688 ave 1688 max 1688 min
Histogram: 1 0 0 0 0 0 0 0 0 0
Nghost:    3416 ave 3416 max 3416 min
Histogram: 1 0 0 0 0 0 0 0 0 0
Neighs:    64046 ave 64046 max 64046 min
Histogram: 1 0 0 0 0 0 0 0 0 0

Total # of neighbors = 64046
Ave neighs/atom = 37.9419
Neighbor list builds = 1000
Dangerous builds = 0
